file 2145307 1641921914                                         
version 2
run General-0-20220111-17:22:42-380
attr configname General
attr datetime 20220111-17:22:42
attr experiment General
attr inifile tictocFinal.ini
attr iterationvars ""
attr iterationvarsf ""
attr measurement ""
attr network tictocFinal
attr processid 380
attr repetition 0
attr replication #0
attr resultdir results
attr runnumber 0
attr seedset 0

vector 0 tictocFinal.node5 "" ETV
vector 1 tictocFinal.node5 e2Delay ETV
vector 2 tictocFinal.node4 "" ETV
vector 3 tictocFinal.node4 e2Delay ETV
0	504 663726 8 190045 0.209276359621 20194.573006796071 22971 0 8 12358 24106
1	664230 984100 8 190045 0.209276359621 20194.573006796071 22971 0.209276359621 20194.573006796 196869379.77921 2376029494940.3
2	1648330 199413 29 174869 1.152276359622 12300.172462963629 7029 0 9 3998 7988
3	1847743 297563 29 174869 1.152276359622 12300.172462963629 7029 1.152276359622 12300.172462964 36453560.476984 259803998678.7

