version 2
run General-0-20220105-17:52:35-1538
attr configname General
attr datetime 20220105-17:52:35
attr experiment General
attr inifile tictocFinal.ini
attr iterationvars ""
attr iterationvarsf ""
attr measurement ""
attr network tictocFinal
attr processid 1538
attr repetition 0
attr replication #0
attr resultdir results
attr runnumber 0
attr seedset 0

vector 0 tictocFinal.node5 "" ETV
vector 1 tictocFinal.node5 e2Delay ETV
vector 2 tictocFinal.node4 "" ETV
vector 3 tictocFinal.node4 e2Delay ETV
0	13	0.516206384526	0
0	14	0.516206384526	0
0	45	1.654285646606	1
0	46	1.654285646606	1
0	55	1.799618979939	2
0	59	1.881952313273	0
0	61	2.027285646606	0
0	85	2.546618979939	0
0	87	2.79661897994	0
0	97	3.128952313273	1
0	109	3.315952313273	0
0	131	3.81361897994	0
0	133	3.883952313273	1
0	135	4.00061897994	0
0	193	5.55661897994	0
0	198	5.761952313273	1
0	219	6.79861897994	0
0	223	6.986285646607	0
0	241	7.423952313274	0
0	263	7.629952313274	0
0	273	7.817618979941	0
0	291	8.920618979941	0
0	293	9.051285646608	0
0	319	9.939285646608	1
0	333	10.150285646607	1
0	337	10.547952313275	0
0	344	10.772952313275	0
0	353	10.852618979942	0
0	357	11.050285646609	0
0	369	11.738952313273	0
0	373	11.924952313273	1
0	379	12.149952313273	0
0	403	12.928285646609	1
0	409	13.252952313273	1
0	413	13.45061897994	0
0	427	14.244952313273	1
0	430	14.975285646606	0
0	433	15.054952313273	0
0	441	15.32161897994	0
0	449	15.483952313276	0
0	455	15.54461897994	0
0	471	16.214285646609	0
0	473	16.274952313273	1
0	485	16.54161897994	1
0	489	16.598952313276	1
0	495	17.13228564661	0
0	531	18.93961897994	0
0	551	19.80161897994	1
0	553	19.870952313278	1
0	623	22.268952313278	0
0	653	24.189285646611	0
0	705	25.745285646611	1
0	717	26.616952313278	0
0	753	28.112285646611	0
0	773	29.403285646605	0
0	785	29.946952313278	0
0	787	30.086285646606	2
0	789	30.134618979945	1
0	791	30.165952313273	1
0	797	30.572285646612	1
0	809	30.834952313273	1
0	837	32.149285646612	0
0	853	32.66961897994	0
0	871	33.468285646612	0
0	879	33.665952313279	1
0	892	34.249952313279	0
0	907	34.72961897994	0
0	917	35.339618979946	0
0	925	35.606285646613	0
0	941	36.102952313279	0
0	943	36.30661897994	0
0	959	37.33661897994	1
0	971	37.52261897994	2
0	989	38.658618979946	1
0	991	38.703618979946	1
0	1001	38.783285646613	1
0	1067	41.97361897994	0
0	1069	41.985285646607	0
0	1106	43.125952313281	0
0	1131	43.415618979948	0
0	1135	43.612618979941	2
0	1137	43.692285646608	2
0	1149	44.436952313281	0
0	1159	44.901952313281	0
0	1173	46.371285646614	0
0	1181	46.913952313275	0
0	1185	47.782618979942	0
0	1197	48.658618979942	0
0	1201	49.327618979947	0
0	1207	49.582285646609	0
0	1209	49.692952313281	0
0	1215	50.221618979943	0
0	1221	50.48828564661	0
0	1233	51.619618979946	0
0	1235	51.654952313276	0
0	1237	51.666618979943	1
0	1245	53.114952313279	1
0	1249	53.653285646612	0
0	1255	53.837952313277	0
0	1269	55.585952313279	0
0	1271	55.748285646612	0
0	1273	55.945952313279	0
0	1275	56.005952313278	0
0	1285	58.310618979946	0
0	1287	58.971285646611	0
0	1291	59.237952313278	1
0	1299	59.702952313278	0
0	1301	59.834618979946	0
0	1303	59.951285646611	1
0	1307	60.108285646613	0
0	1311	60.349618979944	0
0	1313	60.711618979946	0
0	1323	62.082952313279	0
0	1325	62.089618979944	0
0	1327	62.105285646611	0
0	1333	62.951618979946	1
0	1349	65.221285646613	0
0	1351	65.326952313278	1
0	1353	65.513285646613	1
0	1359	66.195618979945	1
0	1363	66.618285646613	0
0	1371	67.281285646612	1
0	1377	68.176285646613	0
0	1379	68.204952313279	1
0	1383	68.53695231328	0
0	1389	68.793618979946	0
0	1397	69.790952313279	0
0	1409	71.161285646612	0
0	1415	71.384952313279	0
0	1417	71.526618979946	0
0	1419	71.846285646613	1
0	1441	73.282952313279	0
0	1443	73.387618979945	0
0	1453	74.408952313278	1
0	1463	74.983618979945	0
0	1473	76.127952313278	0
0	1475	76.154618979945	0
0	1477	76.180285646611	0
0	1481	76.469952313278	1
0	1489	76.692952313278	0
0	1491	76.729952313279	0
0	1493	76.939618979946	1
0	1503	78.679618979946	1
0	1505	78.695285646613	1
0	1511	79.060618979947	1
0	1517	79.383618979945	1
0	1519	79.44595231328	1
0	1533	81.191618979947	1
0	1545	82.108952313278	0
0	1549	82.575618979945	1
0	1553	82.648285646613	1
0	1575	85.373618979946	1
0	1579	85.540952313278	1
0	1593	87.473618979945	0
0	1595	87.738285646613	1
0	1599	88.056952313278	1
0	1603	88.279952313278	2
0	1607	88.401285646613	1
0	1609	88.744952313278	1
0	1615	89.035618979946	1
0	1617	89.140285646612	0
0	1619	89.309285646613	1
0	1623	89.349952313279	1
0	1633	90.795285646613	1
0	1637	91.714618979946	0
0	1641	92.166618979946	1
0	1647	93.271618979946	1
0	1655	93.99295231328	1
0	1659	94.653285646612	1
0	1663	95.316285646612	0
0	1673	96.078285646612	0
0	1685	97.18095231328	1
0	1689	97.564285646612	0
0	1693	97.681618979947	1
0	1701	98.188285646612	0
0	1707	99.137618979947	1
0	1717	100.838285646613	1
0	1719	100.890618979946	1
0	1721	101.144618979945	1
0	1739	103.326618979946	1
0	1741	103.414285646612	0
0	1749	105.461618979946	1
0	1751	105.659285646613	1
0	1755	107.869285646613	0
0	1757	109.427285646613	0
0	1759	112.392618979946	1
0	1763	113.11395231328	0
0	1765	113.242285646613	0
0	1769	115.236952313279	0
0	1779	123.206952313279	0
0	1781	124.662952313279	0
0	1783	125.807285646612	0
0	1785	125.859618979945	0
0	1787	126.811285646612	0
0	1789	127.228285646612	0
0	1791	127.776618979945	0
0	1793	127.863285646612	0
0	1795	130.261285646612	2
0	1797	130.709285646612	1
0	1799	131.107618979945	1
0	1803	132.204285646611	1
0	1805	133.944285646611	1
0	1809	133.975618979945	1
0	1811	135.895952313278	2
0	1813	136.767618979945	2
0	1817	142.218285646611	1
0	1819	143.241952313278	1
0	1821	144.818952313278	2
0	1823	144.830618979945	2
0	1825	145.493618979945	1
0	1831	147.396618979944	1
0	1833	148.882618979944	1
0	1835	152.104285646611	2
0	1837	152.728285646611	1
0	1839	153.817952313278	2
0	1841	154.318618979945	1
0	1843	155.774618979945	1
0	1845	156.094285646612	2
0	1847	156.560952313279	2
0	1849	157.512618979946	1
0	1851	157.960618979946	2
0	1853	160.396618979946	1
0	1855	162.329285646613	2
0	1857	162.491618979946	2
0	1865	165.539618979946	2
0	1867	166.142952313279	2
0	1869	166.766952313279	2
0	1871	167.718618979946	2
0	1877	168.969618979946	2
0	1879	169.056285646613	2
1	13	0.516206384526	0.516206384526
1	14	0.516206384526	0.516206384526
1	45	1.654285646606	1.654285646606
1	46	1.654285646606	1.654285646606
1	55	1.799618979939	1.799618979939
1	59	1.881952313273	1.881952313273
1	61	2.027285646606	2.027285646606
1	85	2.546618979939	2.546618979939
1	87	2.79661897994	2.79661897994
1	97	3.128952313273	3.128952313273
1	109	3.315952313273	3.315952313273
1	131	3.81361897994	3.81361897994
1	133	3.883952313273	3.883952313273
1	135	4.00061897994	4.00061897994
1	193	5.55661897994	5.55661897994
1	198	5.761952313273	5.761952313273
1	219	6.79861897994	6.79861897994
1	223	6.986285646607	6.986285646607
1	241	7.423952313274	7.423952313274
1	263	7.629952313274	7.629952313274
1	273	7.817618979941	7.817618979941
1	291	8.920618979941	8.920618979941
1	293	9.051285646608	9.051285646608
1	319	9.939285646608	9.939285646608
1	333	10.150285646607	10.150285646607
1	337	10.547952313275	10.547952313275
1	344	10.772952313275	10.772952313275
1	353	10.852618979942	10.852618979942
1	357	11.050285646609	11.050285646609
1	369	11.738952313273	11.738952313273
1	373	11.924952313273	11.924952313273
1	379	12.149952313273	12.149952313273
1	403	12.928285646609	12.928285646609
1	409	13.252952313273	13.252952313273
1	413	13.45061897994	13.45061897994
1	427	14.244952313273	14.244952313273
1	430	14.975285646606	14.975285646606
1	433	15.054952313273	15.054952313273
1	441	15.32161897994	15.32161897994
1	449	15.483952313276	15.483952313276
1	455	15.54461897994	15.54461897994
1	471	16.214285646609	16.214285646609
1	473	16.274952313273	16.274952313273
1	485	16.54161897994	16.54161897994
1	489	16.598952313276	16.598952313276
1	495	17.13228564661	17.13228564661
1	531	18.93961897994	18.93961897994
1	551	19.80161897994	19.80161897994
1	553	19.870952313278	19.870952313278
1	623	22.268952313278	22.268952313278
1	653	24.189285646611	24.189285646611
1	705	25.745285646611	25.745285646611
1	717	26.616952313278	26.616952313278
1	753	28.112285646611	28.112285646611
1	773	29.403285646605	29.403285646605
1	785	29.946952313278	29.946952313278
1	787	30.086285646606	30.086285646606
1	789	30.134618979945	30.134618979945
1	791	30.165952313273	30.165952313273
1	797	30.572285646612	30.572285646612
1	809	30.834952313273	30.834952313273
1	837	32.149285646612	32.149285646612
1	853	32.66961897994	32.66961897994
1	871	33.468285646612	33.468285646612
1	879	33.665952313279	33.665952313279
1	892	34.249952313279	34.249952313279
1	907	34.72961897994	34.72961897994
1	917	35.339618979946	35.339618979946
1	925	35.606285646613	35.606285646613
1	941	36.102952313279	36.102952313279
1	943	36.30661897994	36.30661897994
1	959	37.33661897994	37.33661897994
1	971	37.52261897994	37.52261897994
1	989	38.658618979946	38.658618979946
1	991	38.703618979946	38.703618979946
1	1001	38.783285646613	38.783285646613
1	1067	41.97361897994	41.97361897994
1	1069	41.985285646607	41.985285646607
1	1106	43.125952313281	43.125952313281
1	1131	43.415618979948	43.415618979948
1	1135	43.612618979941	43.612618979941
1	1137	43.692285646608	43.692285646608
1	1149	44.436952313281	44.436952313281
1	1159	44.901952313281	44.901952313281
1	1173	46.371285646614	46.371285646614
1	1181	46.913952313275	46.913952313275
1	1185	47.782618979942	47.782618979942
1	1197	48.658618979942	48.658618979942
1	1201	49.327618979947	49.327618979947
1	1207	49.582285646609	49.582285646609
1	1209	49.692952313281	49.692952313281
1	1215	50.221618979943	50.221618979943
1	1221	50.48828564661	50.48828564661
1	1233	51.619618979946	51.619618979946
1	1235	51.654952313276	51.654952313276
1	1237	51.666618979943	51.666618979943
1	1245	53.114952313279	53.114952313279
1	1249	53.653285646612	53.653285646612
1	1255	53.837952313277	53.837952313277
1	1269	55.585952313279	55.585952313279
1	1271	55.748285646612	55.748285646612
1	1273	55.945952313279	55.945952313279
1	1275	56.005952313278	56.005952313278
1	1285	58.310618979946	58.310618979946
1	1287	58.971285646611	58.971285646611
1	1291	59.237952313278	59.237952313278
1	1299	59.702952313278	59.702952313278
1	1301	59.834618979946	59.834618979946
1	1303	59.951285646611	59.951285646611
1	1307	60.108285646613	60.108285646613
1	1311	60.349618979944	60.349618979944
1	1313	60.711618979946	60.711618979946
1	1323	62.082952313279	62.082952313279
1	1325	62.089618979944	62.089618979944
1	1327	62.105285646611	62.105285646611
1	1333	62.951618979946	62.951618979946
1	1349	65.221285646613	65.221285646613
1	1351	65.326952313278	65.326952313278
1	1353	65.513285646613	65.513285646613
1	1359	66.195618979945	66.195618979945
1	1363	66.618285646613	66.618285646613
1	1371	67.281285646612	67.281285646612
1	1377	68.176285646613	68.176285646613
1	1379	68.204952313279	68.204952313279
1	1383	68.53695231328	68.53695231328
1	1389	68.793618979946	68.793618979946
1	1397	69.790952313279	69.790952313279
1	1409	71.161285646612	71.161285646612
1	1415	71.384952313279	71.384952313279
1	1417	71.526618979946	71.526618979946
1	1419	71.846285646613	71.846285646613
1	1441	73.282952313279	73.282952313279
1	1443	73.387618979945	73.387618979945
1	1453	74.408952313278	74.408952313278
1	1463	74.983618979945	74.983618979945
1	1473	76.127952313278	76.127952313278
1	1475	76.154618979945	76.154618979945
1	1477	76.180285646611	76.180285646611
1	1481	76.469952313278	76.469952313278
1	1489	76.692952313278	76.692952313278
1	1491	76.729952313279	76.729952313279
1	1493	76.939618979946	76.939618979946
1	1503	78.679618979946	78.679618979946
1	1505	78.695285646613	78.695285646613
1	1511	79.060618979947	79.060618979947
1	1517	79.383618979945	79.383618979945
1	1519	79.44595231328	79.44595231328
1	1533	81.191618979947	81.191618979947
1	1545	82.108952313278	82.108952313278
1	1549	82.575618979945	82.575618979945
1	1553	82.648285646613	82.648285646613
1	1575	85.373618979946	85.373618979946
1	1579	85.540952313278	85.540952313278
1	1593	87.473618979945	87.473618979945
1	1595	87.738285646613	87.738285646613
1	1599	88.056952313278	88.056952313278
1	1603	88.279952313278	88.279952313278
1	1607	88.401285646613	88.401285646613
1	1609	88.744952313278	88.744952313278
1	1615	89.035618979946	89.035618979946
1	1617	89.140285646612	89.140285646612
1	1619	89.309285646613	89.309285646613
1	1623	89.349952313279	89.349952313279
1	1633	90.795285646613	90.795285646613
1	1637	91.714618979946	91.714618979946
1	1641	92.166618979946	92.166618979946
1	1647	93.271618979946	93.271618979946
1	1655	93.99295231328	93.99295231328
1	1659	94.653285646612	94.653285646612
1	1663	95.316285646612	95.316285646612
1	1673	96.078285646612	96.078285646612
1	1685	97.18095231328	97.18095231328
1	1689	97.564285646612	97.564285646612
1	1693	97.681618979947	97.681618979947
1	1701	98.188285646612	98.188285646612
1	1707	99.137618979947	99.137618979947
1	1717	100.838285646613	100.83828564661
1	1719	100.890618979946	100.89061897995
1	1721	101.144618979945	101.14461897994
1	1739	103.326618979946	103.32661897995
1	1741	103.414285646612	103.41428564661
1	1749	105.461618979946	105.46161897995
1	1751	105.659285646613	105.65928564661
1	1755	107.869285646613	107.86928564661
1	1757	109.427285646613	109.42728564661
1	1759	112.392618979946	112.39261897995
1	1763	113.11395231328	113.11395231328
1	1765	113.242285646613	113.24228564661
1	1769	115.236952313279	115.23695231328
1	1779	123.206952313279	123.20695231328
1	1781	124.662952313279	124.66295231328
1	1783	125.807285646612	125.80728564661
1	1785	125.859618979945	125.85961897994
1	1787	126.811285646612	126.81128564661
1	1789	127.228285646612	127.22828564661
1	1791	127.776618979945	127.77661897994
1	1793	127.863285646612	127.86328564661
1	1795	130.261285646612	130.26128564661
1	1797	130.709285646612	130.70928564661
1	1799	131.107618979945	131.10761897994
1	1803	132.204285646611	132.20428564661
1	1805	133.944285646611	133.94428564661
1	1809	133.975618979945	133.97561897995
1	1811	135.895952313278	135.89595231328
1	1813	136.767618979945	136.76761897994
1	1817	142.218285646611	142.21828564661
1	1819	143.241952313278	143.24195231328
1	1821	144.818952313278	144.81895231328
1	1823	144.830618979945	144.83061897995
1	1825	145.493618979945	145.49361897994
1	1831	147.396618979944	147.39661897994
1	1833	148.882618979944	148.88261897994
1	1835	152.104285646611	152.10428564661
1	1837	152.728285646611	152.72828564661
1	1839	153.817952313278	153.81795231328
1	1841	154.318618979945	154.31861897995
1	1843	155.774618979945	155.77461897994
1	1845	156.094285646612	156.09428564661
1	1847	156.560952313279	156.56095231328
1	1849	157.512618979946	157.51261897995
1	1851	157.960618979946	157.96061897995
1	1853	160.396618979946	160.39661897995
1	1855	162.329285646613	162.32928564661
1	1857	162.491618979946	162.49161897995
1	1865	165.539618979946	165.53961897995
1	1867	166.142952313279	166.14295231328
1	1869	166.766952313279	166.76695231328
1	1871	167.718618979946	167.71861897995
1	1877	168.969618979946	168.96961897995
1	1879	169.056285646613	169.05628564661
2	19	0.983285646606	0
2	96	3.124566743674	0
2	111	3.456900077007	0
2	145	4.344900077007	0
2	147	4.41523341034	0
2	213	6.19123341034	1
2	299	9.30323341034	0
2	303	9.48923341034	0
2	339	10.59223341034	0
2	341	10.671900077007	0
2	375	11.984900077008	1
2	395	12.846900077008	0
2	443	15.402566743675	0
2	447	15.447566743675	0
2	451	15.492566743675	1
2	481	16.364233410342	0
2	509	17.859566743675	0
2	569	20.938233410341	0
2	631	22.477566743674	1
2	689	25.587566743675	2
2	857	32.926233410343	1
2	891	34.245233410343	0
2	929	35.833900077009	2
2	939	36.058900077009	2
2	955	37.148566743676	0
2	1223	50.501566743676	1
2	1247	53.192233410343	0
2	1251	53.65890007701	0
2	1257	53.907233410343	0
2	1263	55.226233410343	1
2	1297	59.677233410343	1
2	1309	60.256566743677	0
2	1331	62.842566743677	2
2	1339	63.86390007701	0
2	1345	64.073566743677	0
2	1395	69.454900077011	1
2	1401	69.902900077011	0
2	1413	71.372233410344	0
2	1434	72.817566743678	1
2	1447	73.545900077011	0
2	1455	74.569566743678	0
2	1465	75.056566743677	0
2	1469	75.779233410344	1
2	1479	76.413566743677	0
2	1487	76.687233410344	0
2	1497	77.290566743677	0
2	1501	78.66190007701	0
2	1521	79.663233410344	0
2	1527	80.612233410344	0
2	1535	81.462566743677	0
2	1569	83.732233410344	1
2	1571	83.864566743677	0
2	1587	86.300566743677	0
2	1590	87.249566743677	1
2	1627	89.538233410343	1
2	1635	91.28390007701	1
2	1639	92.012233410343	1
2	1651	93.551566743676	2
2	1657	94.581566743676	2
2	1667	95.505233410343	2
2	1679	96.671900077009	2
2	1683	97.088900077009	1
2	1691	97.637233410342	1
2	1695	97.769566743675	1
2	1703	98.566233410341	2
2	1705	99.104566743674	2
2	1735	102.815290980027	2
2	1737	102.94362431336	2
2	1743	103.940957646693	2
2	1745	104.073290980026	2
3	19	0.983285646606	0.983285646606
3	96	3.124566743674	3.124566743674
3	111	3.456900077007	3.456900077007
3	145	4.344900077007	4.344900077007
3	147	4.41523341034	4.41523341034
3	213	6.19123341034	6.19123341034
3	299	9.30323341034	9.30323341034
3	303	9.48923341034	9.48923341034
3	339	10.59223341034	10.59223341034
3	341	10.671900077007	10.671900077007
3	375	11.984900077008	11.984900077008
3	395	12.846900077008	12.846900077008
3	443	15.402566743675	15.402566743675
3	447	15.447566743675	15.447566743675
3	451	15.492566743675	15.492566743675
3	481	16.364233410342	16.364233410342
3	509	17.859566743675	17.859566743675
3	569	20.938233410341	20.938233410341
3	631	22.477566743674	22.477566743674
3	689	25.587566743675	25.587566743675
3	857	32.926233410343	32.926233410343
3	891	34.245233410343	34.245233410343
3	929	35.833900077009	35.833900077009
3	939	36.058900077009	36.058900077009
3	955	37.148566743676	37.148566743676
3	1223	50.501566743676	50.501566743676
3	1247	53.192233410343	53.192233410343
3	1251	53.65890007701	53.65890007701
3	1257	53.907233410343	53.907233410343
3	1263	55.226233410343	55.226233410343
3	1297	59.677233410343	59.677233410343
3	1309	60.256566743677	60.256566743677
3	1331	62.842566743677	62.842566743677
3	1339	63.86390007701	63.86390007701
3	1345	64.073566743677	64.073566743677
3	1395	69.454900077011	69.454900077011
3	1401	69.902900077011	69.902900077011
3	1413	71.372233410344	71.372233410344
3	1434	72.817566743678	72.817566743678
3	1447	73.545900077011	73.545900077011
3	1455	74.569566743678	74.569566743678
3	1465	75.056566743677	75.056566743677
3	1469	75.779233410344	75.779233410344
3	1479	76.413566743677	76.413566743677
3	1487	76.687233410344	76.687233410344
3	1497	77.290566743677	77.290566743677
3	1501	78.66190007701	78.66190007701
3	1521	79.663233410344	79.663233410344
3	1527	80.612233410344	80.612233410344
3	1535	81.462566743677	81.462566743677
3	1569	83.732233410344	83.732233410344
3	1571	83.864566743677	83.864566743677
3	1587	86.300566743677	86.300566743677
3	1590	87.249566743677	87.249566743677
3	1627	89.538233410343	89.538233410343
3	1635	91.28390007701	91.28390007701
3	1639	92.012233410343	92.012233410343
3	1651	93.551566743676	93.551566743676
3	1657	94.581566743676	94.581566743676
3	1667	95.505233410343	95.505233410343
3	1679	96.671900077009	96.671900077009
3	1683	97.088900077009	97.088900077009
3	1691	97.637233410342	97.637233410342
3	1695	97.769566743675	97.769566743675
3	1703	98.566233410341	98.566233410341
3	1705	99.104566743674	99.104566743674
3	1735	102.815290980027	102.81529098003
3	1737	102.94362431336	102.94362431336
3	1743	103.940957646693	103.94095764669
3	1745	104.073290980026	104.07329098003

