version 2
run General-0-20220110-16:57:41-1186
attr configname General
attr datetime 20220110-16:57:41
attr experiment General
attr inifile tictocFinal.ini
attr iterationvars ""
attr iterationvarsf ""
attr measurement ""
attr network tictocFinal
attr processid 1186
attr repetition 0
attr replication #0
attr resultdir results
attr runnumber 0
attr seedset 0

vector 0 tictocFinal.node5 "" ETV
vector 1 tictocFinal.node5 e2Delay ETV
vector 2 tictocFinal.node4 "" ETV
vector 3 tictocFinal.node4 e2Delay ETV
0	3	0.054022933687	0
0	11	0.282625081793	0
0	17	0.451625081793	0
0	27	0.799625081793	0
0	31	1.180625081793	0
0	45	1.805761176674	0
0	47	1.873427843341	0
0	63	2.520427843341	0
0	107	3.853800202115	0
0	123	4.537800202116	0
0	161	6.440427843341	3
0	189	8.074133535449	0
0	193	8.296094510008	0
0	214	9.025427843341	0
0	223	9.256427843341	0
0	233	9.893466868783	1
0	235	9.946800202116	0
0	237	10.107800202116	0
0	245	10.955466868783	0
0	259	11.685761176674	0
0	309	13.36313353545	0
0	319	13.901094510007	0
0	325	14.157800202116	1
0	329	14.18313353545	1
0	395	17.477800202116	1
0	401	17.863094510007	0
0	403	18.067800202116	0
0	425	19.006094510007	0
0	433	19.150094510007	1
0	449	20.070094510007	0
0	451	20.09142784334	0
0	467	20.41542784334	0
0	485	20.834133535449	0
0	497	21.125761176673	0
0	501	21.182133535449	1
0	503	21.260800202116	0
0	515	21.595133535449	0
0	549	22.881466868782	0
0	553	23.069466868782	0
0	575	24.13942784334	0
0	583	24.344133535449	1
0	603	25.040094510007	0
0	607	25.196800202116	0
0	619	25.569094510006	2
0	621	25.586466868783	0
0	627	25.700466868783	0
0	639	26.327427843339	0
0	643	26.408466868783	1
0	677	27.011427843339	0
0	685	27.267133535449	1
0	693	27.435800202115	1
0	707	28.252466868782	0
0	729	29.234094510006	1
0	733	29.31942784334	1
0	737	29.437761176673	0
0	739	29.450133535449	0
0	751	29.617800202116	0
0	755	29.708133535449	0
0	771	30.34442784334	0
0	777	30.524133535449	1
0	785	31.350761176673	0
0	795	31.907466868783	2
0	801	32.18013353545	2
0	805	32.22213353545	1
0	841	34.340761176673	3
0	865	34.79742784334	0
0	871	35.073094510007	0
0	893	35.931094510007	1
0	903	36.132800202117	0
0	929	37.597094510007	0
0	941	37.812466868784	0
0	943	37.89942784334	0
0	965	38.610800202117	0
0	971	38.838800202117	0
0	977	38.89142784334	0
0	983	39.069800202117	0
0	1002	39.87613353545	0
0	1017	40.456094510006	1
0	1045	41.666800202117	0
0	1051	41.827466868783	1
0	1057	41.938094510006	1
0	1093	43.527466868783	0
0	1095	43.591800202116	0
0	1157	47.690761176672	1
0	1175	48.638427843339	0
0	1207	50.938466868782	1
0	1225	51.832800202115	0
0	1249	52.620427843339	0
0	1257	53.093094510006	0
0	1259	53.223466868782	0
0	1277	53.781133535449	0
0	1289	54.145427843339	0
0	1299	54.272427843339	0
0	1309	54.712466868783	1
0	1311	54.898761176672	0
0	1319	55.15013353545	0
0	1323	55.19013353545	0
0	1347	57.175427843338	1
0	1349	57.427427843338	0
0	1351	57.50113353545	0
0	1363	58.074761176672	1
0	1419	60.00013353545	0
0	1433	60.311427843338	1
0	1459	61.502094510004	1
0	1473	61.889427843338	1
0	1475	61.93413353545	0
0	1479	62.179761176671	0
0	1485	62.461427843338	0
0	1489	62.50513353545	0
0	1505	64.166094510005	0
0	1509	64.231094510005	0
0	1515	64.302427843339	1
0	1555	66.041094510005	1
0	1583	66.963761176671	1
0	1591	67.409094510004	0
0	1623	68.655427843337	0
0	1629	68.77976117667	0
0	1651	69.29176117667	0
0	1655	69.37076117667	0
0	1661	69.537427843337	0
0	1701	71.408094510003	1
0	1707	71.54076117667	0
0	1717	71.862427843337	0
0	1763	74.70276117667	0
0	1773	75.107427843337	0
0	1861	78.542466868784	1
0	1887	79.310094510003	1
0	1911	80.266466868784	0
0	1913	80.312761176669	1
0	1923	80.865094510002	0
0	1927	80.971427843335	0
0	1935	81.160133535451	0
0	1949	82.021133535451	0
0	1951	82.040800202118	0
0	2059	87.011466868784	1
0	2091	89.174133535451	0
0	2155	91.672761176669	1
0	2167	91.968094510002	0
0	2207	93.60313353545	3
0	2219	93.905094510002	0
0	2227	94.229800202117	0
0	2233	94.584800202117	0
0	2241	94.981427843335	0
0	2245	95.101094510002	0
0	2251	95.636761176669	0
0	2269	96.194761176669	0
0	2275	96.524800202117	0
0	2285	97.305761176669	0
0	2317	98.796094510002	0
0	2321	99.09713353545	0
0	2331	99.41113353545	0
0	2363	100.524094510002	2
0	2381	101.137761176669	0
0	2389	101.259094510003	1
0	2393	101.714466868784	1
0	2409	102.249800202117	0
0	2471	105.43013353545	0
0	2473	105.656094510003	1
0	2487	106.363427843336	0
0	2497	107.084427843336	0
0	2531	107.969094510002	1
0	2565	109.591761176669	0
0	2597	110.904094510002	0
0	2617	112.168094510002	1
0	2621	112.594094510002	0
0	2623	112.66413353545	1
0	2643	113.333466868784	1
0	2649	113.789094510002	0
0	2663	114.43013353545	1
0	2669	114.725094510002	0
0	2683	115.081761176669	0
0	2705	116.264466868783	0
0	2712	116.473133535449	1
0	2715	116.523761176669	2
0	2735	117.708427843335	1
0	2773	118.714427843335	1
0	2789	119.603133535449	0
0	2795	119.754427843335	1
0	2799	119.809094510001	1
0	2817	120.37913353545	2
0	2901	124.546761176668	1
0	2913	124.757427843334	1
0	2939	125.70013353545	0
0	2975	127.457761176667	0
0	2983	127.612427843333	1
0	2997	127.89513353545	0
0	3009	128.546427843333	0
0	3045	130.03613353545	1
0	3051	130.208427843333	0
0	3079	130.989761176666	1
0	3129	133.12909451	1
0	3131	133.28709451	0
0	3169	135.185466868784	1
0	3179	135.570800202117	0
0	3187	135.760800202117	0
0	3203	136.256466868784	0
0	3225	137.43109451	1
0	3267	139.434800202117	0
0	3283	140.665427843333	0
0	3295	141.07413353545	0
0	3301	141.208466868783	0
0	3361	143.91413353545	0
0	3379	144.845800202117	0
0	3383	145.236761176667	1
0	3393	145.485761176667	2
0	3395	145.597427843334	1
0	3409	146.209094510001	0
0	3417	146.731427843334	1
0	3421	146.836427843334	0
0	3431	147.584427843334	0
0	3461	148.42413353545	0
0	3473	149.365466868784	2
0	3481	149.545466868784	0
0	3491	150.287427843334	2
0	3493	150.555466868784	1
0	3495	150.828761176667	0
0	3503	151.30709451	0
0	3511	151.647466868784	0
0	3525	152.217761176666	1
0	3531	152.269427843333	0
0	3533	152.394133535451	2
0	3537	152.592466868784	0
0	3539	152.74709451	0
0	3541	152.796133535451	0
0	3563	153.624427843333	0
0	3569	154.008466868784	0
0	3603	155.878427843333	0
0	3623	156.659800202118	1
0	3627	156.836133535451	0
0	3643	157.276133535451	1
0	3661	157.952133535451	0
0	3683	159.096466868784	1
0	3739	162.968800202117	0
0	3751	163.397466868784	0
0	3769	164.206466868785	2
0	3779	164.687466868784	2
0	3787	164.868800202117	0
0	3789	164.903761176665	3
0	3797	165.222800202117	0
0	3799	165.414094509998	0
0	3801	165.464094509998	2
0	3805	165.889094509998	1
0	3809	166.236761176665	0
0	3815	166.426800202117	1
0	3817	166.480466868784	0
0	3833	167.028800202117	0
0	3841	167.296094509998	0
0	3871	168.697427843331	1
0	3881	169.154427843331	0
0	3933	171.109761176665	1
0	3993	173.305761176665	3
0	4005	174.289761176665	1
0	4013	174.906800202117	1
0	4029	175.418466868784	0
0	4051	176.491761176665	2
0	4053	176.556761176665	0
0	4059	176.708466868784	0
0	4107	179.395800202117	0
0	4123	180.43913353545	0
0	4129	180.71913353545	1
0	4143	181.399427843332	0
0	4175	183.00613353545	0
0	4177	183.029761176665	0
0	4183	183.138094509998	0
0	4185	183.346466868783	0
0	4219	185.104094509998	1
0	4243	186.041427843332	1
0	4255	186.718466868783	2
0	4257	186.926761176666	1
0	4259	187.000800202116	0
0	4263	187.029133535449	0
0	4333	189.377466868782	0
0	4347	190.050800202115	0
0	4351	190.068761176665	4
0	4367	190.964133535448	0
0	4373	191.218133535448	0
0	4385	191.975761176665	0
0	4387	191.992094509998	0
0	4433	193.809466868782	1
0	4455	194.499466868782	0
0	4485	195.592133535449	0
0	4489	195.725427843332	1
0	4509	196.488466868782	0
0	4527	197.266094509999	0
0	4555	198.497427843333	1
0	4561	198.739800202116	1
0	4589	200.173133535449	0
0	4593	200.19709451	0
0	4599	200.593427843333	0
0	4629	201.702800202116	0
0	4691	203.873800202116	0
0	4707	204.392761176667	1
0	4719	205.501466868783	1
0	4729	205.923466868783	0
0	4737	206.420094510001	1
0	4739	206.543094510001	0
0	4743	206.83013353545	0
0	4745	206.990466868783	0
0	4755	207.234466868783	1
0	4849	211.801761176667	1
0	4853	211.872761176667	0
0	4867	212.600466868783	1
0	4871	213.231466868783	0
0	4913	215.298800202117	3
0	4943	217.246761176666	2
0	4951	217.469427843332	1
0	4955	217.77313353545	0
0	4963	217.893094509999	0
0	4969	218.190466868783	0
0	4973	218.486761176666	0
0	4975	218.58413353545	0
0	4995	219.338800202116	1
0	5001	219.499427843333	0
0	5005	219.738761176666	2
0	5027	220.956800202116	0
0	5033	221.087094509999	0
0	5041	221.439466868783	0
0	5045	221.855094509999	0
0	5057	222.635427843332	0
0	5075	223.608466868783	0
0	5079	223.728466868783	0
0	5093	224.463427843332	0
0	5095	224.495761176665	0
0	5103	224.946094509998	0
0	5111	225.555800202117	1
0	5193	229.368466868783	1
0	5221	230.606800202116	0
0	5285	234.654800202116	3
0	5289	234.691133535449	0
0	5295	235.070800202116	0
0	5311	236.222094509999	2
0	5315	236.616761176666	2
0	5319	236.663800202116	0
0	5345	237.629466868783	2
0	5349	237.67613353545	1
0	5353	237.760094509999	0
0	5369	238.64313353545	0
0	5405	240.832094509999	0
0	5415	241.043800202116	1
0	5443	241.979094509999	2
0	5445	242.024800202116	1
0	5455	242.358427843333	1
0	5475	243.14509451	0
0	5515	244.619800202116	0
0	5533	245.315466868783	0
0	5581	247.588427843334	1
0	5589	248.439466868783	1
0	5609	249.870800202116	0
0	5659	251.841427843334	0
0	5667	252.077427843334	1
0	5675	252.378800202116	1
0	5691	253.225466868782	1
0	5695	253.406761176667	0
0	5713	254.218800202115	0
0	5737	255.24109451	0
0	5745	255.482133535448	0
0	5759	256.678761176667	0
0	5763	256.88409451	0
0	5799	258.11109451	2
0	5843	260.154133535448	0
0	5867	260.98409451	0
0	5869	261.165133535448	0
0	5891	261.979427843334	3
0	5901	262.354133535448	0
0	5905	262.364094510001	0
0	5921	262.925761176668	0
0	5939	264.036094510001	0
0	5947	264.26209451	2
0	5973	265.48009451	2
0	5977	265.79709451	0
0	5991	266.062427843333	1
0	6005	266.563761176666	0
0	6011	266.727761176666	0
0	6017	267.392761176666	0
0	6027	267.881133535447	2
0	6031	267.954094509999	0
0	6037	268.215800202113	1
0	6065	269.410427843332	0
0	6073	269.72146686878	0
0	6083	270.054427843332	0
0	6109	271.394761176665	0
0	6120	271.745761176665	0
0	6125	271.884133535448	3
0	6161	273.405094509998	0
0	6177	274.028466868781	0
0	6197	274.980800202114	0
0	6209	275.530133535447	0
0	6219	275.978800202113	1
0	6269	278.409800202113	0
0	6275	278.605094509998	1
0	6287	278.882133535446	0
0	6335	280.496133535446	0
0	6339	280.735466868779	0
0	6345	281.074094509998	2
0	6383	282.969466868779	0
0	6399	284.167094509998	0
0	6405	284.906427843331	0
0	6413	285.143094509998	0
0	6427	285.903094509998	1
0	6439	286.440761176665	0
0	6447	286.939427843332	0
0	6451	286.969466868779	0
0	6471	288.586133535445	1
0	6475	288.736466868778	0
0	6479	289.060094509999	0
0	6499	289.829094509999	0
0	6551	291.805133535444	1
0	6585	293.046094509999	0
0	6587	293.169133535444	1
0	6677	296.733094509999	1
0	6693	297.659427843332	0
0	6699	298.036761176665	0
0	6711	298.596133535444	0
0	6725	299.380761176665	1
0	6729	299.856133535444	1
0	6733	299.918427843332	0
0	6739	300.074133535444	1
0	6743	300.252427843332	0
0	6747	300.400800202111	0
0	6759	300.824800202111	0
0	6761	300.920800202111	0
0	6769	301.565761176665	1
0	6787	302.410133535445	1
0	6827	303.890466868778	0
0	6875	306.116133535445	0
0	6887	306.576094509998	0
0	6889	306.752761176665	0
0	6901	307.112761176665	2
0	6903	307.158427843332	0
0	6925	308.221094509998	1
0	6937	308.791094509998	0
0	6939	308.813427843331	0
0	6968	310.642133535445	1
0	6979	310.875761176664	0
0	6995	311.694466868778	0
0	7025	314.204761176664	1
0	7039	314.747466868778	0
0	7053	314.992800202111	1
0	7071	316.158133535444	0
0	7095	317.594094509998	1
0	7097	317.656466868777	0
0	7099	317.706466868777	0
0	7111	317.791800202109	3
0	7143	319.120761176665	0
0	7151	319.278761176665	1
0	7157	319.353094509998	0
0	7161	319.383427843331	0
0	7165	319.776466868775	1
0	7171	319.945466868774	2
0	7191	320.524466868774	0
0	7209	321.067427843331	1
0	7231	322.335427843331	0
0	7259	323.31713353544	1
0	7275	323.901427843331	1
0	7285	324.32113353544	1
0	7289	324.509800202107	0
0	7293	324.553427843331	0
0	7309	325.168466868773	1
0	7313	325.34713353544	0
0	7319	325.46213353544	0
0	7351	326.610800202107	0
0	7377	327.77213353544	0
0	7385	328.440466868773	0
0	7393	328.64113353544	0
0	7397	328.821427843331	1
0	7407	329.624761176664	0
0	7441	331.398761176664	1
0	7443	331.453427843331	0
0	7469	332.769427843331	0
0	7497	333.709800202107	0
0	7499	333.82213353544	0
0	7501	334.31813353544	1
0	7509	334.711466868773	0
0	7525	335.286800202107	1
0	7565	337.40713353544	0
0	7582	337.943466868773	0
0	7591	338.269466868773	1
0	7595	338.34013353544	0
0	7605	338.812427843331	0
0	7609	338.945761176664	0
0	7617	339.315800202107	0
0	7633	339.760427843331	0
0	7635	339.79513353544	0
0	7643	339.968466868773	0
0	7653	340.666427843331	1
0	7671	341.150800202106	0
0	7683	341.485133535439	0
0	7695	342.254094509998	0
0	7723	343.692466868772	0
0	7735	344.239094509998	0
0	7757	345.026800202105	0
0	7765	345.190800202105	0
0	7771	345.305800202105	0
0	7793	345.906761176665	1
0	7833	347.474133535438	0
0	7845	348.007466868771	0
0	7849	348.082761176665	1
0	7857	348.296800202104	1
0	7859	348.332133535437	0
0	7871	349.103761176665	0
0	7875	349.433094509998	0
0	7879	349.558427843331	0
0	7905	350.219427843331	0
0	7909	350.369800202104	0
0	7929	350.95846686877	1
0	7933	351.293800202103	1
0	7935	351.308761176665	1
0	7941	351.798800202103	0
0	7957	352.70546686877	0
0	7973	353.36946686877	0
0	7995	354.215133535437	0
0	8015	354.898427843332	0
0	8025	355.058800202104	1
0	8059	356.717133535437	0
0	8063	357.225133535437	0
0	8067	357.508133535437	0
0	8075	357.677427843331	2
0	8083	358.148761176664	0
0	8091	358.834133535437	1
0	8115	360.44046686877	0
0	8119	360.82746686877	0
0	8121	360.95546686877	0
0	8123	361.03742784333	1
0	8127	361.29842784333	1
0	8129	361.42146686877	0
0	8149	362.59342784333	0
0	8157	363.09746686877	0
0	8205	365.219761176663	0
0	8215	365.52146686877	0
0	8231	366.166094509996	0
0	8273	367.950761176662	1
0	8279	368.239427843328	1
0	8299	368.818094509994	1
0	8305	368.897094509994	1
0	8313	369.213427843327	0
0	8325	369.742800202104	1
0	8327	369.89676117666	0
0	8351	370.76576117666	0
0	8357	370.951800202104	0
0	8371	372.057800202104	0
0	8415	373.622800202104	0
0	8423	373.933427843327	0
0	8427	374.050800202104	1
0	8461	375.561133535437	0
0	8467	375.644133535437	0
0	8489	376.464094509995	3
0	8511	377.398133535437	0
0	8513	377.531800202104	0
0	8517	377.591427843328	0
0	8527	377.836094509995	0
0	8551	378.672466868771	0
0	8567	379.330094509995	1
0	8569	379.621427843328	0
0	8573	379.688427843328	0
0	8597	380.739427843328	0
0	8599	381.011761176661	0
0	8605	381.272761176661	2
0	8631	382.274427843328	0
0	8643	382.600761176661	2
0	8649	382.771094509994	0
0	8651	382.819761176661	0
0	8677	383.745094509994	0
0	8697	384.781133535437	1
0	8701	384.894427843328	2
0	8731	385.743133535437	1
0	8781	389.047133535437	0
0	8791	389.790761176661	0
0	8803	390.267427843328	0
0	8805	390.28546686877	0
0	8809	390.597094509995	0
0	8827	391.530094509995	2
0	8829	391.541800202103	0
0	8831	391.689094509995	0
0	8857	392.920094509995	0
0	8865	393.132094509995	0
0	8899	394.765800202103	0
0	8907	395.155133535436	0
0	8931	396.239466868769	0
0	8937	396.346133535436	0
0	8945	396.514800202102	1
0	8975	398.269800202102	0
0	8997	399.224133535435	0
0	9013	399.861094509995	2
0	9017	400.029466868769	1
0	9027	400.872427843328	0
0	9067	402.858133535436	0
0	9087	403.380427843328	0
0	9089	403.795800202103	0
0	9095	404.025761176661	0
0	9099	404.12746686877	0
0	9123	405.197094509994	0
0	9125	405.560761176661	0
0	9129	405.634427843328	0
0	9133	405.77746686877	0
0	9157	406.701761176661	0
0	9175	407.767800202103	0
0	9179	408.004800202103	0
0	9183	408.188761176661	1
0	9209	409.219466868769	1
0	9227	409.822427843328	1
0	9233	410.142466868769	0
0	9237	410.181133535435	1
0	9251	410.659761176662	1
0	9287	411.815761176662	1
0	9299	412.540133535435	0
0	9301	412.566094509995	0
0	9307	413.019094509995	1
0	9329	413.885094509995	0
0	9347	414.581094509995	0
0	9389	416.324133535435	1
0	9397	416.759761176661	1
0	9417	417.883761176661	0
0	9425	418.246800202102	0
0	9431	418.925094509994	0
0	9441	419.034761176661	0
0	9465	420.054133535435	0
0	9481	421.037761176661	0
0	9483	421.307800202102	0
0	9502	422.214427843327	1
0	9509	422.503466868769	0
0	9523	422.827761176661	1
0	9535	423.168761176661	2
0	9539	423.305427843328	0
0	9549	423.707466868769	0
0	9551	423.925761176661	0
0	9575	426.046427843328	0
0	9591	426.809761176661	0
0	9595	427.032466868769	0
0	9619	428.915094509994	0
0	9627	429.184466868769	0
0	9633	429.469427843327	0
0	9643	430.387427843327	0
0	9645	430.568133535436	0
0	9669	431.841094509994	0
0	9687	432.873800202103	0
0	9695	433.156133535436	0
0	9731	434.44776117666	1
0	9759	435.410800202102	1
0	9777	436.16376117666	1
0	9797	437.084133535436	1
0	9815	437.811094509993	0
0	9839	438.586094509992	2
0	9845	439.081094509992	0
0	9855	439.241466868769	0
0	9879	440.208800202102	0
0	9889	440.599800202102	0
0	9895	440.734094509992	2
0	9951	443.135133535435	0
0	9963	443.669133535435	0
0	9971	444.159427843326	3
0	9973	444.219466868768	0
0	10007	445.564133535435	0
0	10009	445.615427843326	1
0	10011	445.771800202102	0
0	10033	446.936466868768	1
0	10055	447.650800202101	1
0	10073	448.462094509993	0
0	10081	448.735427843326	1
0	10095	449.164800202101	1
0	10109	449.703133535434	0
0	10133	451.016466868767	0
0	10174	452.8528002021	0
0	10209	455.269094509993	0
0	10221	455.619466868768	3
0	10223	455.686800202101	0
0	10313	460.302133535435	1
0	10323	461.249761176659	1
0	10333	461.542761176659	0
0	10335	461.568427843326	0
0	10347	461.876466868768	0
0	10367	462.666466868768	0
0	10381	462.960427843326	1
0	10389	463.246133535435	0
0	10403	463.886094509993	0
0	10415	464.24776117666	0
0	10423	464.659133535435	2
0	10425	464.740427843327	0
0	10429	464.805761176661	1
0	10443	465.144427843328	0
0	10447	465.240133535435	0
0	10461	465.748427843327	2
0	10481	466.512133535435	2
0	10485	466.680800202102	0
0	10499	467.120133535435	0
0	10539	468.272094509994	0
0	10548	468.688133535435	0
0	10555	468.804133535435	1
0	10561	469.032761176661	0
0	10565	469.072761176661	1
0	10571	469.176800202102	0
0	10577	469.376133535435	0
0	10611	470.780133535435	0
0	10645	471.897800202102	1
0	10677	473.637133535435	0
0	10685	474.204800202102	0
0	10687	474.237427843327	1
0	10691	474.292133535436	1
0	10701	474.451133535436	0
0	10709	474.859133535436	0
0	10713	475.082761176661	1
0	10719	475.208466868769	1
0	10741	475.809761176661	0
0	10751	476.129466868769	0
0	10761	476.585761176661	1
0	10767	476.851761176661	2
0	10769	476.936800202102	0
0	10781	478.002133535435	0
0	10783	478.072761176661	0
0	10821	479.886427843328	0
0	10841	480.751466868768	0
0	10873	481.960466868768	2
0	10895	483.228761176661	0
0	10897	483.292761176661	1
0	10903	483.401427843328	0
0	10935	485.287133535435	0
0	10941	485.601427843328	1
0	10957	486.703133535435	0
0	10961	486.840761176662	1
0	10999	488.631800202102	0
0	11003	488.785466868769	0
0	11039	490.054427843329	0
0	11045	490.107466868769	0
0	11055	490.625761176663	1
0	11077	491.060133535436	0
0	11099	491.586800202102	1
0	11103	491.688094509996	0
0	11117	492.477094509996	0
0	11135	493.355761176663	0
0	11145	494.07442784333	0
0	11147	494.577094509997	0
0	11157	494.875094509997	2
0	11159	495.006800202102	0
0	11171	495.998466868769	0
0	11179	496.250133535436	0
0	11181	496.269800202103	0
0	11201	497.537133535436	0
0	11211	497.657094509997	0
0	11225	498.151133535436	0
0	11229	498.440133535436	0
0	11239	499.285094509997	3
0	11255	499.960466868769	0
0	11271	500.739094509997	0
0	11273	500.818800202102	2
0	11305	501.871800202102	0
0	11309	502.118133535435	0
0	11329	503.454094509997	2
0	11361	505.343133535435	0
0	11447	509.228466868769	1
0	11459	509.650466868769	0
0	11507	512.328466868769	0
1	3	0.054022933687	0.054022933687
1	11	0.282625081793	0.282625081793
1	17	0.451625081793	0.451625081793
1	27	0.799625081793	0.799625081793
1	31	1.180625081793	1.180625081793
1	45	1.805761176674	1.805761176674
1	47	1.873427843341	1.873427843341
1	63	2.520427843341	2.520427843341
1	107	3.853800202115	3.853800202115
1	123	4.537800202116	4.537800202116
1	161	6.440427843341	6.440427843341
1	189	8.074133535449	8.074133535449
1	193	8.296094510008	8.296094510008
1	214	9.025427843341	9.025427843341
1	223	9.256427843341	9.256427843341
1	233	9.893466868783	9.893466868783
1	235	9.946800202116	9.946800202116
1	237	10.107800202116	10.107800202116
1	245	10.955466868783	10.955466868783
1	259	11.685761176674	11.685761176674
1	309	13.36313353545	13.36313353545
1	319	13.901094510007	13.901094510007
1	325	14.157800202116	14.157800202116
1	329	14.18313353545	14.18313353545
1	395	17.477800202116	17.477800202116
1	401	17.863094510007	17.863094510007
1	403	18.067800202116	18.067800202116
1	425	19.006094510007	19.006094510007
1	433	19.150094510007	19.150094510007
1	449	20.070094510007	20.070094510007
1	451	20.09142784334	20.09142784334
1	467	20.41542784334	20.41542784334
1	485	20.834133535449	20.834133535449
1	497	21.125761176673	21.125761176673
1	501	21.182133535449	21.182133535449
1	503	21.260800202116	21.260800202116
1	515	21.595133535449	21.595133535449
1	549	22.881466868782	22.881466868782
1	553	23.069466868782	23.069466868782
1	575	24.13942784334	24.13942784334
1	583	24.344133535449	24.344133535449
1	603	25.040094510007	25.040094510007
1	607	25.196800202116	25.196800202116
1	619	25.569094510006	25.569094510006
1	621	25.586466868783	25.586466868783
1	627	25.700466868783	25.700466868783
1	639	26.327427843339	26.327427843339
1	643	26.408466868783	26.408466868783
1	677	27.011427843339	27.011427843339
1	685	27.267133535449	27.267133535449
1	693	27.435800202115	27.435800202115
1	707	28.252466868782	28.252466868782
1	729	29.234094510006	29.234094510006
1	733	29.31942784334	29.31942784334
1	737	29.437761176673	29.437761176673
1	739	29.450133535449	29.450133535449
1	751	29.617800202116	29.617800202116
1	755	29.708133535449	29.708133535449
1	771	30.34442784334	30.34442784334
1	777	30.524133535449	30.524133535449
1	785	31.350761176673	31.350761176673
1	795	31.907466868783	31.907466868783
1	801	32.18013353545	32.18013353545
1	805	32.22213353545	32.22213353545
1	841	34.340761176673	34.340761176673
1	865	34.79742784334	34.79742784334
1	871	35.073094510007	35.073094510007
1	893	35.931094510007	35.931094510007
1	903	36.132800202117	36.132800202117
1	929	37.597094510007	37.597094510007
1	941	37.812466868784	37.812466868784
1	943	37.89942784334	37.89942784334
1	965	38.610800202117	38.610800202117
1	971	38.838800202117	38.838800202117
1	977	38.89142784334	38.89142784334
1	983	39.069800202117	39.069800202117
1	1002	39.87613353545	39.87613353545
1	1017	40.456094510006	40.456094510006
1	1045	41.666800202117	41.666800202117
1	1051	41.827466868783	41.827466868783
1	1057	41.938094510006	41.938094510006
1	1093	43.527466868783	43.527466868783
1	1095	43.591800202116	43.591800202116
1	1157	47.690761176672	47.690761176672
1	1175	48.638427843339	48.638427843339
1	1207	50.938466868782	50.938466868782
1	1225	51.832800202115	51.832800202115
1	1249	52.620427843339	52.620427843339
1	1257	53.093094510006	53.093094510006
1	1259	53.223466868782	53.223466868782
1	1277	53.781133535449	53.781133535449
1	1289	54.145427843339	54.145427843339
1	1299	54.272427843339	54.272427843339
1	1309	54.712466868783	54.712466868783
1	1311	54.898761176672	54.898761176672
1	1319	55.15013353545	55.15013353545
1	1323	55.19013353545	55.19013353545
1	1347	57.175427843338	57.175427843338
1	1349	57.427427843338	57.427427843338
1	1351	57.50113353545	57.50113353545
1	1363	58.074761176672	58.074761176672
1	1419	60.00013353545	60.00013353545
1	1433	60.311427843338	60.311427843338
1	1459	61.502094510004	61.502094510004
1	1473	61.889427843338	61.889427843338
1	1475	61.93413353545	61.93413353545
1	1479	62.179761176671	62.179761176671
1	1485	62.461427843338	62.461427843338
1	1489	62.50513353545	62.50513353545
1	1505	64.166094510005	64.166094510005
1	1509	64.231094510005	64.231094510005
1	1515	64.302427843339	64.302427843339
1	1555	66.041094510005	66.041094510005
1	1583	66.963761176671	66.963761176671
1	1591	67.409094510004	67.409094510004
1	1623	68.655427843337	68.655427843337
1	1629	68.77976117667	68.77976117667
1	1651	69.29176117667	69.29176117667
1	1655	69.37076117667	69.37076117667
1	1661	69.537427843337	69.537427843337
1	1701	71.408094510003	71.408094510003
1	1707	71.54076117667	71.54076117667
1	1717	71.862427843337	71.862427843337
1	1763	74.70276117667	74.70276117667
1	1773	75.107427843337	75.107427843337
1	1861	78.542466868784	78.542466868784
1	1887	79.310094510003	79.310094510003
1	1911	80.266466868784	80.266466868784
1	1913	80.312761176669	80.312761176669
1	1923	80.865094510002	80.865094510002
1	1927	80.971427843335	80.971427843335
1	1935	81.160133535451	81.160133535451
1	1949	82.021133535451	82.021133535451
1	1951	82.040800202118	82.040800202118
1	2059	87.011466868784	87.011466868784
1	2091	89.174133535451	89.174133535451
1	2155	91.672761176669	91.672761176669
1	2167	91.968094510002	91.968094510002
1	2207	93.60313353545	93.60313353545
1	2219	93.905094510002	93.905094510002
1	2227	94.229800202117	94.229800202117
1	2233	94.584800202117	94.584800202117
1	2241	94.981427843335	94.981427843335
1	2245	95.101094510002	95.101094510002
1	2251	95.636761176669	95.636761176669
1	2269	96.194761176669	96.194761176669
1	2275	96.524800202117	96.524800202117
1	2285	97.305761176669	97.305761176669
1	2317	98.796094510002	98.796094510002
1	2321	99.09713353545	99.09713353545
1	2331	99.41113353545	99.41113353545
1	2363	100.524094510002	100.52409451
1	2381	101.137761176669	101.13776117667
1	2389	101.259094510003	101.25909451
1	2393	101.714466868784	101.71446686878
1	2409	102.249800202117	102.24980020212
1	2471	105.43013353545	105.43013353545
1	2473	105.656094510003	105.65609451
1	2487	106.363427843336	106.36342784334
1	2497	107.084427843336	107.08442784334
1	2531	107.969094510002	107.96909451
1	2565	109.591761176669	109.59176117667
1	2597	110.904094510002	110.90409451
1	2617	112.168094510002	112.16809451
1	2621	112.594094510002	112.59409451
1	2623	112.66413353545	112.66413353545
1	2643	113.333466868784	113.33346686878
1	2649	113.789094510002	113.78909451
1	2663	114.43013353545	114.43013353545
1	2669	114.725094510002	114.72509451
1	2683	115.081761176669	115.08176117667
1	2705	116.264466868783	116.26446686878
1	2712	116.473133535449	116.47313353545
1	2715	116.523761176669	116.52376117667
1	2735	117.708427843335	117.70842784334
1	2773	118.714427843335	118.71442784334
1	2789	119.603133535449	119.60313353545
1	2795	119.754427843335	119.75442784333
1	2799	119.809094510001	119.80909451
1	2817	120.37913353545	120.37913353545
1	2901	124.546761176668	124.54676117667
1	2913	124.757427843334	124.75742784333
1	2939	125.70013353545	125.70013353545
1	2975	127.457761176667	127.45776117667
1	2983	127.612427843333	127.61242784333
1	2997	127.89513353545	127.89513353545
1	3009	128.546427843333	128.54642784333
1	3045	130.03613353545	130.03613353545
1	3051	130.208427843333	130.20842784333
1	3079	130.989761176666	130.98976117667
1	3129	133.12909451	133.12909451
1	3131	133.28709451	133.28709451
1	3169	135.185466868784	135.18546686878
1	3179	135.570800202117	135.57080020212
1	3187	135.760800202117	135.76080020212
1	3203	136.256466868784	136.25646686878
1	3225	137.43109451	137.43109451
1	3267	139.434800202117	139.43480020212
1	3283	140.665427843333	140.66542784333
1	3295	141.07413353545	141.07413353545
1	3301	141.208466868783	141.20846686878
1	3361	143.91413353545	143.91413353545
1	3379	144.845800202117	144.84580020212
1	3383	145.236761176667	145.23676117667
1	3393	145.485761176667	145.48576117667
1	3395	145.597427843334	145.59742784333
1	3409	146.209094510001	146.20909451
1	3417	146.731427843334	146.73142784333
1	3421	146.836427843334	146.83642784333
1	3431	147.584427843334	147.58442784333
1	3461	148.42413353545	148.42413353545
1	3473	149.365466868784	149.36546686878
1	3481	149.545466868784	149.54546686878
1	3491	150.287427843334	150.28742784333
1	3493	150.555466868784	150.55546686878
1	3495	150.828761176667	150.82876117667
1	3503	151.30709451	151.30709451
1	3511	151.647466868784	151.64746686878
1	3525	152.217761176666	152.21776117667
1	3531	152.269427843333	152.26942784333
1	3533	152.394133535451	152.39413353545
1	3537	152.592466868784	152.59246686878
1	3539	152.74709451	152.74709451
1	3541	152.796133535451	152.79613353545
1	3563	153.624427843333	153.62442784333
1	3569	154.008466868784	154.00846686878
1	3603	155.878427843333	155.87842784333
1	3623	156.659800202118	156.65980020212
1	3627	156.836133535451	156.83613353545
1	3643	157.276133535451	157.27613353545
1	3661	157.952133535451	157.95213353545
1	3683	159.096466868784	159.09646686878
1	3739	162.968800202117	162.96880020212
1	3751	163.397466868784	163.39746686878
1	3769	164.206466868785	164.20646686878
1	3779	164.687466868784	164.68746686878
1	3787	164.868800202117	164.86880020212
1	3789	164.903761176665	164.90376117667
1	3797	165.222800202117	165.22280020212
1	3799	165.414094509998	165.41409451
1	3801	165.464094509998	165.46409451
1	3805	165.889094509998	165.88909451
1	3809	166.236761176665	166.23676117666
1	3815	166.426800202117	166.42680020212
1	3817	166.480466868784	166.48046686878
1	3833	167.028800202117	167.02880020212
1	3841	167.296094509998	167.29609451
1	3871	168.697427843331	168.69742784333
1	3881	169.154427843331	169.15442784333
1	3933	171.109761176665	171.10976117666
1	3993	173.305761176665	173.30576117666
1	4005	174.289761176665	174.28976117666
1	4013	174.906800202117	174.90680020212
1	4029	175.418466868784	175.41846686878
1	4051	176.491761176665	176.49176117666
1	4053	176.556761176665	176.55676117666
1	4059	176.708466868784	176.70846686878
1	4107	179.395800202117	179.39580020212
1	4123	180.43913353545	180.43913353545
1	4129	180.71913353545	180.71913353545
1	4143	181.399427843332	181.39942784333
1	4175	183.00613353545	183.00613353545
1	4177	183.029761176665	183.02976117667
1	4183	183.138094509998	183.13809451
1	4185	183.346466868783	183.34646686878
1	4219	185.104094509998	185.10409451
1	4243	186.041427843332	186.04142784333