version 2
run General-0-20220105-13:14:05-1673
attr configname General
attr datetime 20220105-13:14:05
attr experiment General
attr inifile tictocFinal.ini
attr iterationvars ""
attr iterationvarsf ""
attr measurement ""
attr network tictocFinal
attr processid 1673
attr repetition 0
attr replication #0
attr resultdir results
attr runnumber 0
attr seedset 0

vector 0 tictocFinal.node5 "" ETV
vector 1 tictocFinal.node4 "" ETV
0	16	0.514072476361	0
0	17	0.514072476361	0
0	22	0.573272476361	0
0	25	0.632472476361	1
0	27	0.719272476361	1
0	29	0.778472476361	1
0	46	1.236316765184	0
0	47	1.236316765184	0
0	52	1.240516765184	0
0	59	1.575716765184	1
0	91	3.97732967405	0
0	121	4.943646799457	0
0	133	5.343846799457	0
0	135	5.42145584675	1
0	139	5.52165584675	1
0	143	5.55885584675	1
0	147	5.641046799457	0
0	169	5.85605584675	0
0	171	5.938246799457	0
0	185	6.235446799457	0
0	187	6.31425584675	0
0	195	6.335646799457	1
0	197	6.36145584675	0
0	199	6.40865584675	1
0	205	6.66385584675	0
0	211	6.793846799457	0
0	221	7.252046799457	0
0	223	7.289246799457	1
0	233	7.326446799457	1
0	235	7.373646799457	0
0	239	7.499846799457	0
0	259	7.900046799457	1
0	269	8.353246799457	2
0	277	8.608446799457	1
0	279	8.656984546625	1
0	283	9.260646799457	0
0	287	9.557846799457	2
0	295	9.910046799457	0
0	311	10.562246799457	1
0	323	11.214446799457	1
0	325	11.219174529674	0
0	351	11.866646799457	1
0	363	12.218846799457	1
0	365	12.470374529674	1
0	375	12.852574529674	1
0	379	13.138774529674	1
0	389	13.470046799457	0
0	417	14.122246799457	2
0	420	14.1900025822	0
0	423	14.504446799457	0
0	439	14.886646799457	0
0	444	15.1702025822	0
0	447	15.172846799457	0
0	459	15.393046799457	1
0	461	15.3994025822	0
0	463	15.613246799457	1
0	465	15.6286025822	0
0	479	15.8578025822	0
0	481	15.929446799457	0
0	483	15.9440025822	0
0	491	16.0302025822	0
0	501	16.1164025822	0
0	505	16.2026025822	1
0	507	16.311646799457	1
0	511	16.459846799457	1
0	513	16.5718025822	1
0	517	16.776046799457	1
0	525	16.8640025822	1
0	533	16.924246799457	2
0	569	17.698775720675	0
0	575	17.904446799457	0
0	577	17.943646799457	0
0	579	17.982846799457	1
0	589	18.212046799457	2
0	599	18.553699022464	1
0	603	18.903246799457	0
0	611	19.594446799457	0
0	613	20.285646799457	0
0	615	20.371846799457	0
0	617	21.063046799457	1
0	619	21.754246799457	1
0	627	22.445446799457	1
0	635	23.136646799457	1
0	643	23.639299213964	0
0	647	23.827846799457	1
0	649	23.941499213964	0
0	651	23.961046799457	0
0	653	24.022246799457	1
0	655	24.083446799457	1
0	657	24.144646799457	1
0	671	24.623846799457	0
0	673	24.665046799457	0
0	675	24.706246799457	0
0	697	25.246446799457	2
0	701	25.307646799457	2
0	719	25.786846799457	1
0	725	26.39647230394	1
0	729	26.526046799457	0
0	739	26.828246799457	0
0	745	27.130446799457	0
0	747	27.432646799457	1
0	749	27.518342160258	0
0	755	28.073846799457	0
0	757	28.243542160258	0
0	769	28.672742160258	1
0	771	28.715046799457	0
0	775	29.101942160258	1
0	777	29.356246799457	0
0	783	29.531142160258	1
0	793	29.960342160258	1
0	795	30.389542160258	1
0	811	30.818742160258	1
0	831	31.543942160258	1
0	849	32.111446799457	1
0	869	32.481646799457	0
0	871	32.511846799457	0
0	873	32.542046799457	1
0	875	32.572246799457	1
0	877	32.622142160258	0
0	879	32.666446799457	0
0	889	33.391646799457	0
0	897	34.046342160258	0
0	899	34.051542160258	0
0	901	34.318742160258	0
0	917	34.585942160258	0
0	919	34.632142160258	0
0	927	34.772342160258	0
0	951	35.476542160258	1
0	955	35.522742160258	1
0	957	35.568942160258	1
0	959	35.615142160258	1
0	963	35.845342160258	0
0	967	36.075542160258	0
0	975	36.146846799457	2
0	981	36.305742160258	0
0	987	36.517046799457	1
0	989	36.535942160258	0
0	991	36.547246799457	1
0	993	36.577446799457	1
0	997	36.794142160258	0
0	999	37.067342160258	0
0	1009	37.325542160258	1
0	1027	37.655646799457	0
0	1031	37.749846799457	1
0	1033	37.844046799457	1
0	1045	37.938246799457	2
0	1047	38.032446799457	2
0	1049	38.032742160258	0
0	1051	38.037646799457	0
0	1059	38.304846799457	0
0	1061	38.325046799457	0
0	1079	38.592246799457	1
0	1087	38.739942160258	0
0	1095	38.936142160258	0
0	1099	38.976342160258	0
0	1105	39.172542160258	1
0	1109	39.296446799457	0
0	1115	39.368742160258	1
0	1117	39.436646799457	0
0	1119	39.564942160258	1
0	1121	39.576846799457	0
0	1131	39.717046799457	1
0	1141	40.065142160258	0
0	1147	40.141342160258	0
0	1165	40.641542160258	1
0	1167	40.795246799457	2
0	1175	41.141742160258	1
0	1183	41.306942160258	1
0	1207	41.693142160258	0
0	1217	41.873446799457	2
0	1221	41.893646799457	1
0	1225	42.079342160258	0
0	1227	42.123846799457	0
0	1229	42.146542160258	0
0	1231	42.150742160258	0
0	1233	42.189942160258	1
0	1241	42.257142160258	1
0	1252	42.595860336862	0
0	1258	42.756060336862	0
0	1261	42.916260336862	0
0	1269	43.548046799457	2
0	1279	43.683930971508	1
0	1291	44.180130971508	1
0	1329	44.972246799457	2
0	1331	44.977446799457	2
0	1335	44.997646799457	2
0	1337	45.001330971508	0
0	1339	45.227846799457	1
0	1347	45.355046799457	0
0	1351	45.628246799457	0
0	1355	45.822530971508	0
0	1357	45.880730971508	1
0	1369	46.335446799457	0
0	1383	46.499465559242	1
0	1407	47.197665559242	0
0	1409	47.221865559242	0
0	1411	47.293065559242	0
0	1413	47.364265559242	0
0	1421	47.447646799457	1
0	1431	47.782964530611	1
0	1437	47.901164530611	1
0	1443	48.559846799457	1
0	1445	48.600046799457	0
0	1461	49.307246799457	1
0	1474	49.728648001971	0
0	1479	49.807446799457	0
0	1483	49.896646799457	0
0	1487	49.985846799457	0
0	1491	50.062046799457	0
0	1497	50.650848001971	0
0	1502	50.764048001971	0
0	1511	50.877248001971	0
0	1513	51.174246799457	2
0	1515	51.191448001971	1
0	1517	51.304648001971	1
0	1533	51.610236502154	0
0	1535	51.689446799457	1
0	1545	52.204646799457	1
0	1549	52.477846799457	2
0	1559	52.762102358501	1
0	1571	53.211046799457	0
0	1574	53.259780407858	0
0	1577	53.376246799457	0
0	1591	53.891446799457	2
0	1593	53.980646799457	1
0	1597	54.069846799457	1
0	1599	54.146046799457	2
0	1620	54.463758255595	0
0	1633	54.665958255595	0
0	1635	54.703246799457	0
0	1637	54.742446799457	0
0	1639	54.809646799457	0
0	1641	54.876846799457	0
0	1643	54.881046799457	1
0	1645	54.935158255595	0
0	1653	55.377246799457	0
0	1657	55.537446799457	0
0	1667	55.697646799457	1
0	1673	55.985658255595	1
0	1685	56.430846799457	1
0	1705	56.936858255595	1
0	1721	57.252046799457	0
0	1727	57.566058255595	0
0	1731	57.633258255595	0
0	1733	57.696458255595	0
0	1741	58.073246799457	0
0	1745	58.318446799457	0
0	1747	58.325658255595	1
0	1751	58.491646799457	0
0	1767	59.048846799457	1
0	1769	59.870046799457	1
0	1771	60.115246799457	1
0	1773	60.360446799457	1
0	1775	60.605646799457	1
0	1777	60.850846799457	1
0	1779	61.096046799457	1
0	1781	61.653246799457	2
0	1783	62.257446799457	0
0	1785	62.753646799457	1
0	1787	62.926846799457	1
0	1789	62.985046799457	1
0	1791	63.158246799457	2
0	1793	63.856446799457	0
0	1795	63.880646799457	0
0	1797	64.484846799457	1
0	1799	64.556046799457	0
0	1801	64.872246799457	1
0	1803	65.188446799457	1
0	1805	65.498646799457	0
0	1807	65.808846799457	1
0	1809	66.119046799457	1
0	1811	66.435246799457	1
0	1813	66.745446799457	1
0	1815	67.059646799457	0
0	1817	67.373846799457	0
0	1819	68.072046799457	2
0	1821	68.386246799457	1
0	1823	69.332446799457	0
0	1825	69.628646799457	0
0	1827	69.643846799457	0
0	1829	69.659046799457	0
0	1831	69.674246799457	0
0	1833	69.689446799457	1
0	1835	69.704646799457	1
0	1837	70.576846799457	0
0	1839	70.822046799457	0
0	1841	71.694246799457	1
0	1843	71.738446799457	1
0	1845	72.610646799457	1
0	1847	72.654846799457	1
0	1849	72.924046799457	0
0	1851	73.534246799457	0
0	1853	74.113446799457	2
0	1855	74.315646799457	2
0	1857	74.382846799457	0
0	1859	74.446046799457	0
0	1861	74.509246799457	0
0	1863	74.572446799457	0
0	1865	74.635646799457	0
0	1867	74.932846799457	0
0	1869	75.543046799457	1
0	1871	75.840246799457	1
0	1873	75.907446799457	2
0	1875	75.974646799457	2
0	1877	76.041846799457	2
0	1879	76.105046799457	2
1	43	0.912439603338	0
1	57	1.248716765184	2
1	95	4.13235584675	0
1	106	4.58555584675	0
1	110	4.68575584675	0
1	113	4.78595584675	0
1	119	4.92715584675	0
1	123	4.96435584675	0
1	209	6.71065584675	1
1	215	6.85185584675	1
1	231	7.31005584675	1
1	243	7.56525584675	0
1	247	7.70645584675	2
1	263	8.10665584675	2
1	265	8.23285584675	1
1	271	8.35905584675	1
1	273	8.48525584675	2
1	313	10.651343717794	0
1	338	11.484062708769	0
1	371	12.735262708769	1
1	377	13.051462708769	1
1	387	13.271662708769	1
1	406	13.783672334175	0
1	415	14.091072334175	2
1	443	15.1701025822	1
1	468	15.704684720463	0
1	497	16.081141319919	1
1	509	16.450341319919	1
1	515	16.742541319919	0
1	535	17.034741319919	1
1	541	17.326941319919	1
1	551	17.460141319919	1
1	555	17.593341319919	1
1	571	17.726541319919	1
1	573	17.859741319919	1
1	591	18.399941319919	0
1	593	18.461141319919	0
1	595	18.522341319919	0
1	605	19.062541319919	1
1	607	19.103741319919	2
1	609	19.144941319919	2
1	667	24.54677230394	0
1	709	25.598958313529	1
1	723	26.240158313529	1
1	731	26.669358313529	0
1	791	29.82187230394	2
1	809	30.56107230394	2
1	827	30.99027230394	1
1	863	32.41447230394	0
1	865	32.46067230394	0
1	938	35.107542684411	0
1	979	36.219742684411	0
1	985	36.477942684411	0
1	1007	37.182142684411	1
1	1039	37.886342684411	1
1	1063	38.401542684411	0
1	1081	38.597742684411	0
1	1085	38.724942684411	1
1	1093	38.852142684411	1
1	1097	38.941342684411	1
1	1101	39.030542684411	1
1	1103	39.157742684411	2
1	1151	40.21827230394	2
1	1173	41.087876462513	1
1	1205	41.474076462513	0
1	1213	41.860276462513	0
1	1215	41.864476462513	0
1	1271	43.60667230394	1
1	1281	43.77187230394	1
1	1293	44.21387230394	2
1	1317	44.60007230394	2
1	1319	44.65827230394	0
1	1321	44.71647230394	0
1	1325	44.75567230394	1
1	1327	44.79487230394	1
1	1365	45.96787230394	1
1	1403	47.165935370806	0
1	1475	49.728648001971	0
1	1481	49.841848001971	0
1	1501	50.764048001971	1
1	1560	52.762102358501	1
1	1569	53.058302358501	2
1	1595	54.067002358501	2
1	1625	54.646202358501	0
1	1649	55.225402358501	0
1	1671	55.804602358501	0
1	1675	56.006802358501	0
1	1677	56.051002358501	0
1	1710	57.147842065385	0
1	1739	58.052143567575	1
1	1749	58.349343567575	1
1	1755	58.646543567575	1
1	1761	58.943743567575	1

