version 2
run General-0-20220111-17:22:42-380
attr configname General
attr datetime 20220111-17:22:42
attr experiment General
attr inifile tictocFinal.ini
attr iterationvars ""
attr iterationvarsf ""
attr measurement ""
attr network tictocFinal
attr processid 380
attr repetition 0
attr replication #0
attr resultdir results
attr runnumber 0
attr seedset 0

vector 0 tictocFinal.node5 "" ETV
vector 1 tictocFinal.node5 e2Delay ETV
vector 2 tictocFinal.node4 "" ETV
vector 3 tictocFinal.node4 e2Delay ETV
0	8	0.209276359621	0
0	9	0.209276359621	0
0	19	0.358276359621	0
0	22	0.526943026288	0
0	25	0.675943026288	0
0	67	4.106340129339	0
0	69	4.305340129339	0
0	71	4.33808451673	0
0	79	4.802340129339	0
0	115	5.404236181412	0
0	117	5.657340129339	2
0	167	6.638006796006	0
0	169	6.677673462673	0
0	171	6.857673462673	0
0	173	6.888127727459	0
0	177	7.087127727459	0
0	197	7.584127727459	0
0	219	9.253673462673	1
0	255	11.098794394125	1
0	257	11.171461060792	0
0	273	11.984461060792	2
0	323	13.33934012934	0
0	405	15.834673462674	1
0	407	15.866673462674	0
0	417	16.366006796007	0
0	419	16.386673462674	0
0	469	18.026006796008	1
0	517	19.987340129342	2
0	539	20.486673462675	0
0	543	20.884673462675	1
0	581	21.860006796008	0
0	615	24.015794394126	1
0	619	24.100340129341	0
0	643	24.991127727459	0
0	657	25.739673462675	2
0	681	26.238794394126	0
0	733	27.338794394126	0
0	737	27.545461060792	1
0	745	27.939673462675	1
0	773	28.596127727458	1
0	777	28.860127727458	1
0	797	29.515673462674	2
0	811	30.127794394125	0
0	819	30.263127727458	0
0	821	30.333006796008	1
0	845	31.316673462675	0
0	855	32.020461060791	0
0	857	32.041127727458	0
0	865	32.584340129342	0
0	867	32.719673462675	0
0	871	32.751461060791	0
0	872	32.752340129341	1
0	875	32.792006796008	0
0	877	32.864673462675	0
0	891	33.575006796008	0
0	911	34.526127727458	0
0	925	34.675006796008	1
0	931	34.972461060791	0
0	939	35.345673462675	0
0	945	35.871006796008	0
0	957	36.135006796008	1
0	995	37.130340129342	1
0	999	37.397340129342	0
0	1011	38.131006796009	0
0	1039	39.123006796009	0
0	1043	39.330461060791	1
0	1090	41.107006796009	1
0	1095	41.314127727458	0
0	1107	41.553340129342	0
0	1113	41.816794394125	0
0	1141	42.016340129342	0
0	1233	44.929794394126	2
0	1275	46.102006796009	0
0	1297	46.416006796009	1
0	1299	46.448006796009	0
0	1327	47.207127727459	0
0	1339	47.708127727459	2
0	1357	48.627006796009	0
0	1365	48.675340129342	0
0	1375	48.960340129342	2
0	1379	49.000006796009	1
0	1385	49.180006796009	1
0	1393	49.360006796009	0
0	1435	51.134673462676	1
0	1437	51.187006796009	0
0	1463	51.543127727458	2
0	1465	51.689673462676	0
0	1467	52.136006796009	0
0	1487	53.840461060792	1
0	1507	54.410461060792	0
0	1545	55.730006796009	3
0	1585	57.805340129343	1
0	1603	58.112006796009	1
0	1619	58.492340129342	0
0	1659	59.969340129342	0
0	1729	62.246673462675	0
0	1775	64.487006796008	0
0	1777	64.519006796008	0
0	1779	64.654673462675	0
0	1833	66.441794394126	2
0	1835	66.829461060793	0
0	1836	66.833673462675	0
0	1839	67.000673462675	0
0	1847	67.450127727459	1
0	1857	67.639461060792	0
0	1859	67.680127727459	0
0	1871	68.279006796008	0
0	1883	69.262673462675	0
0	1885	69.279006796008	1
0	1903	70.128127727459	0
0	1923	70.743461060792	0
0	1929	71.187127727459	0
0	1937	71.576340129342	1
0	1945	72.074006796009	0
0	1949	72.644006796009	0
0	1955	72.916794394126	0
0	1957	73.031673462676	0
0	1985	73.83900679601	1
0	1991	73.918340129344	1
0	2001	74.29700679601	1
0	2061	76.00700679601	2
0	2075	76.285461060793	0
0	2080	76.69412772746	1
0	2101	77.975461060793	0
0	2103	78.006340129343	0
0	2111	78.786673462676	0
0	2115	78.827340129343	0
0	2125	79.146340129343	0
0	2165	80.72612772746	0
0	2183	81.594340129343	0
0	2193	81.822673462676	0
0	2197	81.993794394127	0
0	2221	82.623673462676	2
0	2241	83.78712772746	0
0	2243	83.827461060793	0
0	2273	84.537794394126	0
0	2293	85.610127727459	0
0	2311	86.111461060792	0
0	2317	86.622340129342	1
0	2331	86.891794394125	1
0	2335	86.987461060792	0
0	2341	87.237673462675	0
0	2363	87.805673462675	0
0	2375	88.249340129342	0
0	2377	88.445127727459	0
0	2379	88.477673462675	0
0	2409	89.794673462675	0
0	2423	90.607127727459	0
0	2427	90.874127727459	1
0	2439	91.262006796009	3
0	2465	91.958127727458	2
0	2467	91.976127727458	0
0	2489	92.535006796009	0
0	2495	92.783461060791	0
0	2511	93.329461060791	0
0	2523	93.586461060791	0
0	2539	94.320127727458	1
0	2543	94.519006796009	1
0	2549	94.783127727458	0
0	2553	95.385794394125	0
0	2565	96.248673462676	0
0	2573	96.301006796009	0
0	2575	96.681340129342	0
0	2587	96.863794394125	0
0	2607	97.962673462675	0
0	2613	98.146006796009	1
0	2615	98.609006796009	3
0	2631	99.235127727459	1
0	2643	99.596127727459	0
0	2655	99.969127727459	0
0	2697	101.359673462676	0
0	2735	103.066127727458	2
0	2737	103.153006796009	0
0	2749	103.296127727458	1
0	2759	103.624006796009	2
0	2761	103.769794394125	0
0	2763	103.809673462676	0
0	2779	104.572461060792	0
0	2797	104.882006796009	0
0	2817	105.383340129342	0
0	2837	106.925794394126	1
0	2846	107.176673462675	0
0	2849	107.228461060793	0
0	2851	107.362340129342	0
0	2869	107.651673462676	1
0	2873	108.153006796009	2
0	2885	108.405794394126	0
0	2925	111.264461060792	2
0	3007	113.428794394125	0
0	3013	113.931461060792	0
0	3029	114.894127727459	0
0	3045	115.214794394126	0
0	3049	115.684340129343	1
0	3051	115.758794394126	0
0	3061	116.170127727459	0
0	3065	116.323461060792	0
0	3073	116.834340129343	1
0	3075	116.93000679601	0
0	3083	117.43100679601	0
0	3085	117.526673462677	2
0	3103	118.182340129344	0
0	3105	118.192673462677	0
0	3107	118.210673462677	0
0	3143	119.01800679601	0
0	3167	119.379340129343	1
0	3173	119.415340129343	1
0	3196	119.672340129343	0
0	3229	121.287006796009	1
0	3245	121.787127727459	0
0	3279	122.623127727459	0
0	3297	123.189006796009	3
0	3353	124.900461060792	0
0	3373	125.401461060792	0
0	3442	128.659127727459	0
0	3455	129.39800679601	2
0	3459	129.610127727459	0
0	3463	129.683794394126	0
0	3465	129.850794394126	1
0	3493	130.49000679601	1
0	3501	130.69500679601	0
0	3503	130.732794394126	0
0	3515	131.538794394126	0
0	3533	132.17300679601	0
0	3537	132.40300679601	0
0	3545	132.530794394126	1
0	3553	132.723673462677	1
0	3559	133.04012772746	1
0	3561	133.106340129344	0
0	3573	133.510006796011	2
0	3575	133.549673462678	1
0	3577	133.619006796011	0
0	3579	133.72612772746	0
0	3585	133.93112772746	1
0	3587	134.092673462678	0
0	3611	135.269340129345	0
0	3650	136.96712772746	2
0	3653	137.268673462678	0
0	3685	138.972673462678	2
0	3689	139.201006796011	0
0	3705	140.046794394127	0
0	3725	140.734794394126	2
0	3741	141.365340129344	0
0	3751	141.54212772746	6
0	3753	141.581794394127	0
0	3761	141.77112772746	0
0	3763	141.811794394127	0
0	3787	142.665794394127	0
0	3799	143.120673462677	0
0	3803	144.083340129344	0
0	3823	144.724673462678	1
0	3828	145.113794394127	0
0	3865	146.07412772746	0
0	3873	146.356673462678	2
0	3891	147.317006796011	0
0	3895	147.728340129344	0
0	3909	148.31912772746	0
0	3941	148.956461060794	1
0	3943	149.001340129344	0
0	3949	149.571794394127	0
0	3951	149.837340129344	0
0	3959	149.951340129344	0
0	3967	150.065340129344	3
0	3979	150.459127727461	1
0	3981	150.695340129344	0
0	3999	151.732127727461	0
0	4001	151.875461060794	0
0	4003	151.922340129344	0
0	4011	153.373794394127	0
0	4013	153.651794394127	0
0	4025	154.22712772746	0
0	4027	154.468461060793	0
0	4041	156.40300679601	2
0	4061	157.288340129344	1
0	4075	157.83712772746	1
0	4079	158.173673462678	1
0	4107	159.125673462678	1
0	4111	159.199340129345	0
0	4115	159.50412772746	0
0	4170	161.42612772746	1
0	4193	162.31912772746	0
0	4197	162.514006796011	1
0	4233	164.481340129345	3
0	4235	164.499794394127	0
0	4241	164.616673462678	0
0	4244	164.633006796011	2
0	4247	164.699127727461	1
0	4249	164.832127727461	0
0	4263	165.439006796011	0
0	4303	166.635673462677	1
0	4313	166.878794394128	0
0	4315	166.986127727461	0
0	4325	167.131673462677	0
0	4351	167.386340129344	0
0	4399	169.165794394128	0
0	4403	169.268794394128	0
0	4423	169.747794394128	0
0	4425	169.788340129344	1
0	4437	170.179127727462	1
0	4441	170.376127727462	0
0	4443	170.474340129344	0
0	4477	172.071127727462	0
0	4479	172.392006796011	0
0	4489	172.827673462678	0
0	4491	172.912673462678	0
0	4503	173.096461060795	0
0	4505	173.386673462678	0
0	4507	174.057340129345	0
0	4531	174.894794394128	0
0	4537	175.582673462679	1
0	4541	175.744127727462	1
0	4543	176.109006796012	0
0	4547	176.355340129345	0
0	4555	176.832794394129	0
0	4593	179.435006796012	0
0	4608	180.598461060796	0
0	4657	182.066127727463	0
0	4659	182.076461060796	0
0	4675	182.692673462679	1
0	4727	184.549794394129	0
0	4733	184.658006796012	0
0	4757	185.512006796012	0
0	4787	186.615006796012	0
0	4791	186.869673462679	0
0	4795	187.142794394128	2
0	4805	187.881673462679	0
0	4829	188.607794394128	0
0	4859	190.677461060795	1
0	4860	190.681340129346	0
0	4881	191.256340129346	2
0	4887	191.692006796013	0
0	4915	192.419127727462	0
0	4937	192.764461060795	0
0	4941	193.003340129347	1
0	4946	193.24967346268	0
0	4955	193.333461060795	0
0	4981	193.996794394128	0
0	4989	194.226794394128	0
0	4995	194.508794394128	0
0	5006	194.744127727461	0
0	5025	195.466127727461	1
0	5043	196.142461060794	0
0	5063	196.515461060794	0
0	5101	198.071794394127	0
0	5137	198.656794394127	0
0	5165	199.66967346268	1
0	5222	201.753794394126	3
0	5227	201.868794394126	3
0	5229	201.91467346268	0
0	5239	202.341127727459	2
0	5243	202.479794394125	3
0	5245	202.552006796014	1
0	5269	203.207127727459	1
0	5289	204.621673462681	0
0	5295	204.875673462681	1
0	5297	205.032673462681	2
0	5307	205.505006796014	0
0	5323	205.868673462681	0
0	5329	206.483127727459	1
0	5333	206.517127727459	1
0	5361	207.035461060792	0
0	5365	207.674127727459	0
0	5387	209.058794394126	0
0	5461	212.865673462681	0
0	5463	213.009006796014	0
0	5477	214.113006796014	0
0	5539	217.10967346268	1
0	5541	217.28967346268	1
0	5551	217.865006796013	0
0	5581	218.768127727458	3
0	5585	218.866127727458	1
0	5593	219.087006796012	2
0	5595	219.215673462679	0
0	5603	219.299340129346	0
0	5611	219.626461060791	0
0	5649	220.753006796013	0
0	5677	221.79067346268	1
0	5691	222.162461060791	0
0	5717	223.398461060791	1
0	5731	223.704127727458	0
0	5735	223.810127727458	0
0	5741	224.268461060791	0
0	5749	224.465127727458	0
0	5751	224.489127727458	0
0	5771	225.324006796013	0
0	5789	226.437006796013	2
0	5804	226.970794394125	0
0	5807	227.178794394125	0
0	5809	227.473006796013	0
0	5815	227.94467346268	0
0	5817	228.140794394126	2
0	5841	228.460794394126	0
0	5843	228.592127727459	0
0	5863	229.61167346268	0
0	5879	230.078461060792	0
0	5901	231.019794394124	3
0	5993	236.423794394123	2
0	6013	236.60867346268	0
0	6023	237.205794394123	0
0	6031	237.41746106079	0
0	6057	238.46867346268	0
0	6079	239.466006796013	0
0	6103	241.024127727456	1
0	6145	242.462673462679	1
0	6167	243.423673462679	0
0	6181	243.979673462679	1
0	6183	244.001461060789	0
0	6209	244.873673462679	1
0	6225	245.563461060789	1
0	6231	245.766673462679	0
0	6249	246.396673462679	0
0	6251	246.637127727456	0
0	6261	247.473127727456	0
0	6269	248.063673462679	0
0	6273	248.285673462679	1
0	6276	248.385340129346	0
0	6281	248.518340129346	0
0	6299	249.745340129346	0
0	6323	250.221794394122	1
0	6343	250.86867346268	1
0	6357	251.034461060789	0
0	6371	251.928461060789	0
0	6383	252.854127727456	0
0	6385	252.915340129347	0
0	6393	253.285794394123	0
0	6395	253.358006796014	0
0	6397	253.465340129347	0
0	6429	254.417340129347	2
0	6465	255.98746106079	0
0	6475	256.597006796014	0
0	6477	256.700006796014	0
0	6497	257.218673462681	0
0	6503	257.697673462681	0
0	6511	257.932794394124	1
0	6513	258.129006796015	1
0	6517	258.326006796015	0
0	6529	258.805006796015	1
0	6531	258.814794394124	0
0	6549	259.954127727458	1
0	6559	260.230794394125	0
0	6581	261.427461060791	1
0	6593	261.923461060791	0
0	6595	262.015794394124	0
0	6597	262.195006796015	1
0	6615	263.016340129348	0
0	6639	264.673673462681	1
0	6659	265.449794394124	0
0	6661	266.135794394124	0
0	6665	266.472006796014	0
0	6701	267.083794394124	1
0	6703	267.399340129348	1
0	6719	267.824006796015	0
0	6729	268.044006796015	0
0	6735	268.781673462682	0
0	6751	269.20046106079	1
0	6813	271.977127727456	1
0	6825	272.453673462682	1
0	6863	273.654673462682	0
0	6887	274.118340129349	0
0	6897	274.543006796016	0
0	6905	274.68046106079	1
0	6935	275.883340129349	0
0	6947	276.136673462683	1
0	6959	276.717673462683	0
0	6983	277.616794394123	0
0	6985	277.86634012935	1
0	6989	278.302006796017	0
0	6991	278.387006796017	0
0	6999	278.774673462684	0
0	7013	279.095340129351	0
0	7033	279.601127727456	0
0	7037	279.866794394123	0
0	7047	279.911794394123	0
0	7173	286.071127727457	2
0	7231	288.754127727457	0
0	7257	289.212794394123	1
0	7261	289.280127727457	1
0	7263	289.43146106079	0
0	7301	291.316127727456	1
0	7431	296.135340129351	3
0	7449	296.898006796018	0
0	7459	297.126340129351	0
0	7483	297.314794394123	0
0	7513	298.179006796017	1
0	7515	298.25646106079	0
0	7517	298.52746106079	0
0	7521	299.255673462684	0
0	7525	299.502006796017	2
0	7629	304.448673462683	1
0	7645	305.044006796016	0
0	7663	305.934673462683	0
0	7667	306.934673462683	0
0	7721	308.15746106079	2
0	7729	308.399673462683	0
0	7733	309.131127727457	0
0	7737	309.41046106079	0
0	7745	310.360794394123	0
0	7751	310.605673462683	1
0	7755	311.11734012935	0
0	7785	311.43634012935	2
0	7837	313.178006796017	0
0	7841	313.52334012935	0
0	7851	314.09234012935	0
0	7888	315.536673462683	0
0	7911	316.105673462683	1
0	7939	317.047006796015	3
0	7941	317.095794394123	2
0	7971	317.723340129348	0
0	7985	318.77146106079	0
0	8003	319.39946106079	1
0	8047	320.836006796014	1
0	8071	321.421006796014	0
0	8085	323.54346106079	0
0	8089	324.220673462681	1
0	8111	324.64746106079	0
0	8135	325.222794394123	0
0	8163	326.245340129348	0
0	8171	326.85746106079	0
0	8176	327.144794394123	0
0	8179	327.199127727456	0
0	8195	328.091461060789	0
0	8221	329.546461060789	0
0	8225	329.585794394122	0
0	8227	329.723794394122	0
0	8245	330.510461060789	0
0	8253	330.790461060789	0
0	8257	330.914127727456	0
0	8259	331.155461060789	3
0	8267	331.284127727456	0
0	8271	331.45146106079	2
0	8291	332.77046106079	0
0	8329	334.34546106079	0
0	8381	335.286127727456	1
0	8421	336.739794394123	1
0	8453	338.036794394123	0
0	8461	338.26846106079	0
0	8467	338.597127727457	0
0	8481	339.93946106079	0
0	8543	343.296340129349	2
0	8589	344.934340129349	0
0	8607	345.410340129349	3
0	8609	345.427340129349	0
0	8617	345.546340129349	1
0	8631	346.064673462682	0
0	8633	346.088127727456	1
0	8636	346.157006796015	0
0	8643	346.637673462681	1
0	8651	347.276340129348	0
0	8661	347.794673462681	0
0	8663	347.838006796014	0
0	8677	348.609340129348	1
0	8695	349.621461060789	0
0	8723	351.036673462681	0
0	8747	351.693461060789	1
0	8753	352.079006796014	0
0	8755	352.128006796014	0
0	8765	352.559461060789	0
0	8767	352.651127727456	0
0	8798	354.511127727456	0
0	8807	355.508461060789	0
0	8821	356.467340129348	1
0	8847	357.227673462681	0
0	8941	360.55946106079	2
0	8953	360.80246106079	0
0	8971	361.94646106079	0
0	8973	362.082340129347	1
0	8975	362.111794394123	0
0	8979	362.263340129347	0
0	9029	363.744340129347	0
0	9039	364.056340129347	0
0	9041	364.323340129347	0
0	9047	364.941340129347	0
0	9057	365.247006796014	0
0	9063	365.459006796014	1
0	9067	365.622461060789	1
0	9075	365.917340129347	0
0	9085	366.535340129347	0
0	9089	367.12967346268	0
0	9092	367.326340129347	0
0	9109	367.374340129347	1
0	9117	367.680006796014	0
0	9119	367.715794394122	0
0	9127	367.785127727455	0
0	9137	368.138340129347	1
0	9145	368.167461060788	0
0	9149	368.563461060788	0
0	9185	370.620006796014	0
0	9187	370.744127727455	0
0	9191	370.843794394122	0
0	9195	370.976794394122	0
0	9197	371.013340129348	2
0	9213	371.288461060789	0
0	9239	371.906673462681	0
0	9263	372.705340129347	1
0	9276	373.335127727456	0
0	9279	373.442461060789	0
0	9293	374.153461060789	0
0	9343	376.739461060789	1
0	9405	378.919127727456	0
0	9413	379.022127727456	0
0	9415	379.080794394123	0
0	9433	379.702340129347	0
0	9467	380.372794394123	0
0	9495	381.43746106079	0
0	9531	382.410127727457	0
0	9533	382.675006796013	1
0	9537	382.763127727457	0
0	9565	383.45246106079	0
0	9567	383.47746106079	0
0	9571	383.779006796013	0
0	9575	384.001006796013	1
0	9579	384.209006796013	0
0	9595	384.298794394123	0
0	9603	384.685006796013	1
0	9619	384.935127727456	0
0	9627	385.301127727456	0
0	9665	386.486340129346	0
0	9670	386.749461060789	0
0	9679	387.043006796013	0
0	9723	388.827673462679	1
0	9733	389.047461060789	1
0	9735	389.186461060789	0
0	9737	389.211794394122	0
0	9743	389.647127727456	1
0	9747	389.708006796012	0
0	9761	390.009127727456	1
0	9764	390.115340129345	0
0	9779	390.897340129345	0
0	9781	390.981006796012	2
0	9783	391.034461060789	3
0	9811	391.952340129345	0
0	9813	392.167340129345	0
0	9821	392.320673462678	0
0	9845	392.744006796012	1
0	9849	392.897340129345	0
0	9861	393.909673462678	1
0	9867	394.877794394122	0
0	9877	395.401127727455	0
0	9879	395.455127727455	0
0	9893	395.747127727455	1
0	9909	396.887006796011	0
0	9919	397.545461060788	0
0	9989	400.493673462677	1
0	9995	400.636794394121	0
0	9997	401.064340129344	0
0	10043	402.619794394121	2
0	10045	402.657461060788	0
0	10053	402.810006796011	0
0	10061	403.591006796011	0
0	10071	403.746127727455	0
0	10073	403.872794394122	0
0	10075	403.891006796011	1
0	10085	404.453794394122	0
0	10109	405.363461060789	0
0	10113	405.724794394122	0
0	10117	406.038340129345	1
0	10141	407.192461060789	0
0	10149	407.759127727456	0
0	10187	409.646461060789	0
0	10211	410.161340129344	2
0	10251	412.190461060789	0
0	10254	412.305794394122	0
0	10261	412.599340129345	2
0	10331	415.576673462678	0
0	10333	415.838461060788	1
0	10359	416.477127727455	0
0	10361	416.541340129345	0
0	10377	416.953461060788	0
0	10435	421.213461060788	0
0	10437	421.272794394121	0
0	10447	421.501127727454	0
0	10460	421.944673462679	1
0	10469	422.060127727453	2
0	10481	422.869461060786	0
0	10483	422.917340129346	0
0	10501	423.487006796013	0
0	10519	425.02279439412	1
0	10547	427.62979439412	0
0	10557	427.830127727453	0
0	10615	430.428006796014	2
0	10625	430.704673462681	0
0	10629	430.793340129348	0
0	10661	432.194127727453	1
0	10678	432.686127727453	0
0	10681	433.460461060786	0
0	10709	434.326673462681	2
0	10713	434.879127727453	0
0	10717	435.04379439412	0
0	10739	436.273127727453	0
0	10751	437.028340129348	1
0	10753	437.155127727453	0
0	10757	437.184461060787	1
0	10775	437.946340129348	0
0	10777	437.97379439412	0
0	10797	438.982340129348	0
0	10802	439.638461060787	1
0	10811	440.015127727454	0
0	10813	440.040673462681	0
0	10841	440.512340129348	0
0	10843	440.623340129348	0
0	10877	441.850794394121	0
0	10887	442.011673462681	0
0	10889	442.052340129348	0
0	10899	442.446127727454	1
0	10905	442.880461060787	0
0	10917	443.225461060787	0
0	10923	443.567127727454	0
0	10943	444.829006796014	1
0	10963	445.481127727454	0
0	10965	445.589461060787	0
0	10977	446.040340129347	0
0	10983	446.31067346268	0
0	10985	446.589461060787	0
0	10991	447.257340129346	1
0	11011	448.223127727454	0
0	11013	448.260127727454	0
0	11049	449.241673462679	0
0	11061	450.036127727454	0
0	11063	450.096673462679	0
0	11065	450.141673462679	1
0	11119	452.001673462679	2
0	11163	453.596340129345	1
0	11175	453.688006796012	0
0	11177	454.112794394121	0
0	11185	454.153127727454	0
0	11209	455.105340129346	1
0	11215	455.550006796013	0
0	11219	455.701340129346	0
0	11223	455.894794394121	0
0	11241	456.659794394121	0
0	11243	456.993794394121	0
0	11263	457.329127727454	0
0	11273	457.850673462679	0
0	11293	458.848006796012	1
0	11295	458.978340129345	0
0	11331	460.017006796012	0
0	11351	460.696127727454	0
0	11363	460.959340129345	0
0	11373	461.359461060787	3
0	11386	461.815006796012	0
0	11408	462.732006796012	0
0	11411	463.160127727454	0
0	11425	464.280794394121	0
0	11431	464.664461060788	0
0	11481	468.194127727455	0
0	11491	468.730673462679	0
0	11507	469.638461060788	1
0	11533	470.442127727455	0
0	11547	471.481340129346	1
0	11549	471.521673462679	0
0	11551	471.563794394122	0
0	11561	471.924127727455	0
0	11577	472.978461060788	0
0	11605	474.337794394122	1
0	11619	474.804673462679	0
0	11621	475.430794394122	1
0	11623	475.712794394122	0
0	11625	475.746340129346	0
0	11633	476.143127727455	0
0	11635	476.458340129346	0
0	11639	476.729340129346	0
0	11661	477.495794394121	2
0	11665	477.679673462679	0
0	11667	477.719461060788	0
0	11671	478.116127727455	0
0	11679	478.359461060788	0
0	11687	478.946673462679	0
0	11701	479.901461060788	1
0	11723	480.370794394122	1
0	11727	480.622340129346	0
0	11729	480.634794394122	0
0	11745	481.194127727455	0
0	11779	482.540006796013	1
0	11797	483.385794394122	0
0	11813	484.029006796013	0
0	11817	484.312794394122	2
0	11821	484.464461060789	0
0	11845	485.66367346268	0
0	11853	485.951006796013	0
0	11867	487.406006796013	0
0	11871	487.445340129346	0
0	11881	487.721340129346	1
0	11905	488.508006796013	0
0	11923	488.798340129346	0
0	11925	488.823794394122	0
0	11927	488.928127727455	0
0	11935	489.078340129346	0
0	11955	489.936794394122	0
0	11967	490.496461060789	0
0	11983	490.914340129346	0
0	12003	492.549006796013	0
0	12007	492.657673462679	1
0	12011	492.697006796012	0
0	12061	495.335006796012	1
0	12067	495.555006796012	1
0	12075	495.657794394123	1
0	12091	496.341673462679	0
0	12099	496.382794394123	0
0	12107	496.465340129346	0
0	12123	497.933340129346	0
0	12125	498.020794394123	0
0	12127	498.113127727456	0
0	12147	498.671006796013	0
0	12155	498.751794394123	0
0	12159	498.91567346268	0
0	12161	499.386006796013	0
0	12169	500.461340129346	0
0	12193	500.92467346268	1
0	12221	501.582006796014	1
0	12261	502.648794394123	0
0	12271	502.909127727456	0
0	12275	502.968006796014	0
0	12307	504.293794394123	0
0	12351	506.155340129348	1
0	12394	507.51146106079	0
0	12423	508.840006796014	1
0	12457	509.437127727457	0
0	12467	510.180340129347	3
0	12477	510.307006796014	0
0	12481	510.415794394124	0
0	12511	511.034794394124	0
0	12557	513.096794394124	0
0	12559	513.381340129347	0
0	12579	513.956340129347	0
0	12583	514.33346106079	1
0	12627	516.405127727457	0
0	12647	517.174127727457	0
0	12665	517.420340129347	3
0	12671	517.931127727456	2
0	12707	520.467127727456	1
0	12715	520.648127727456	0
0	12765	523.374461060789	0
0	12807	524.973127727456	0
0	12817	525.285127727456	1
0	12819	525.391127727456	2
0	12865	528.665340129346	2
0	12877	528.950673462679	0
0	12905	530.470340129346	0
0	12907	530.541127727456	1
0	12909	530.994794394123	0
0	12933	531.491127727456	0
0	12937	531.614340129346	0
0	12951	532.384461060789	0
0	12963	532.79167346268	1
0	12981	533.826127727456	0
0	12993	534.505127727456	0
0	12997	534.845794394123	0
0	13013	535.483127727456	0
0	13015	535.803127727456	0
0	13019	535.84646106079	1
0	13047	537.332794394123	0
0	13069	537.755794394123	0
0	13081	538.763127727456	0
0	13099	539.459461060789	0
0	13111	539.930127727455	4
0	13113	540.288340129346	1
0	13121	540.380006796013	0
0	13125	540.595461060788	0
0	13159	542.473340129346	0
0	13163	542.542673462679	0
0	13173	544.198127727454	1
0	13199	545.078461060787	0
0	13315	550.153127727454	0
0	13341	550.935127727454	0
0	13349	551.062673462679	2
0	13353	551.445006796012	0
0	13391	552.964673462679	0
0	13395	553.193006796012	1
0	13401	553.429006796012	0
0	13405	553.540794394121	0
0	13437	554.512127727454	0
0	13439	554.530794394121	0
0	13449	554.982127727454	0
0	13451	555.034006796012	0
0	13487	556.211340129346	1
0	13507	556.650340129346	0
0	13515	557.091127727454	2
0	13543	557.855340129346	0
0	13545	558.205006796013	0
0	13557	558.63967346268	2
0	13563	559.033461060787	0
0	13569	559.506794394121	1
0	13591	560.589461060788	0
0	13623	561.928461060788	0
0	13653	562.811127727454	1
0	13659	562.964006796013	0
0	13673	563.267127727454	3
0	13675	563.61967346268	0
0	13679	563.931340129347	0
0	13689	564.188340129347	0
0	13701	564.928461060787	0
0	13705	565.078461060787	3
0	13709	565.321794394121	1
0	13711	565.387794394121	0
0	13713	565.552127727454	0
0	13725	566.105127727454	0
0	13743	567.043006796014	0
0	13747	567.178794394121	0
0	13767	568.041673462681	0
0	13783	568.553127727454	0
0	13791	568.984794394121	0
0	13837	571.371006796015	1
0	13865	572.494794394121	2
0	13869	572.561673462681	1
0	13871	572.596794394121	1
0	13881	572.801461060787	1
0	13891	572.938127727453	1
0	13897	573.332127727452	2
0	13899	573.400006796014	0
0	13935	574.693006796014	0
0	13937	574.896127727452	0
0	13939	574.979794394119	0
0	13973	576.471006796014	1
0	13977	577.088340129347	0
0	13979	577.293461060786	0
0	13987	577.784340129347	1
0	13989	578.094340129347	0
0	13991	578.153006796014	0
0	13993	578.324127727453	0
0	14015	579.153006796014	0
0	14049	580.38767346268	1
0	14051	580.446340129347	3
0	14053	580.958006796014	0
0	14059	581.197673462681	0
0	14067	581.437340129348	1
0	14105	582.769673462681	0
0	14117	583.742340129348	0
0	14147	585.220340129348	0
0	14159	585.940127727453	1
0	14171	586.42279439412	0
0	14191	586.777461060788	3
0	14201	587.008127727454	1
0	14205	587.101794394121	0
0	14207	587.127127727454	0
0	14215	587.501127727455	2
0	14217	587.541794394122	0
0	14229	588.118340129348	1
0	14247	588.719006796014	1
0	14273	590.664340129348	2
0	14275	590.726006796015	0
0	14277	590.975794394122	0
0	14285	592.174340129348	0
0	14289	592.313340129348	0
0	14291	592.338673462681	0
0	14293	592.556340129348	0
0	14295	593.040461060788	1
0	14303	593.332673462681	0
0	14317	594.098794394121	1
0	14319	594.118794394121	0
0	14337	594.361127727454	0
0	14339	594.705794394121	0
0	14341	594.777006796014	1
0	14347	595.139006796014	1
0	14355	595.442794394121	0
0	14363	595.593794394121	0
0	14365	595.915340129347	0
0	14375	596.639127727454	0
0	14391	597.301461060787	0
0	14397	597.590127727454	0
0	14407	598.008673462679	3
0	14419	598.312006796012	0
0	14425	598.571340129346	1
0	14427	598.625340129346	0
0	14429	598.771340129346	0
0	14463	599.818006796012	2
0	14475	600.526461060787	0
0	14479	600.911006796012	0
0	14489	601.293673462679	1
0	14491	601.357127727454	0
0	14525	602.30379439412	1
0	14555	603.150461060787	0
0	14559	603.422461060787	1
0	14605	605.212340129346	0
0	14667	607.391127727453	1
0	14679	607.624673462679	0
0	14687	607.928006796013	1
0	14693	608.246127727453	0
0	14705	608.624794394119	1
0	14713	609.155794394119	0
0	14767	611.606461060785	1
0	14779	612.403794394118	0
0	14821	614.110673462679	1
0	14855	615.179127727452	1
0	14877	615.801794394119	0
0	14883	615.930461060785	1
0	14895	616.452461060785	0
0	14917	617.382461060785	0
0	14937	617.735340129345	1
0	14939	617.801673462678	0
0	14967	619.689006796011	0
0	14975	619.922461060785	0
0	14989	622.233006796011	0
0	14995	622.529127727451	1
0	15005	622.871673462678	0
0	15023	623.348006796011	0
0	15031	624.081673462678	0
0	15033	624.141006796011	0
0	15037	624.259673462677	1
0	15039	624.415127727451	1
0	15065	625.33000679601	0
0	15097	626.139340129343	0
0	15139	628.16400679601	2
0	15167	629.781127727451	4
0	15168	629.782673462676	1
0	15189	632.389673462676	0
0	15237	634.072461060784	0
0	15241	634.37512772745	2
0	15251	634.958006796009	0
0	15255	635.250673462676	0
0	15257	635.305673462676	0
0	15263	635.506006796009	0
0	15279	636.123794394117	0
0	15287	636.490006796009	1
0	15291	636.58212772745	0
0	15309	636.927461060783	0
0	15317	636.962461060783	0
0	15331	637.264340129342	0
0	15333	637.355461060783	0
0	15337	637.377461060783	1
0	15357	638.122006796009	0
0	15373	639.118461060782	2
0	15457	642.37800679601	2
0	15461	642.469461060782	0
0	15467	642.767461060782	1
0	15469	643.05300679601	0
0	15481	643.382340129344	1
0	15483	644.220461060782	0
0	15489	644.592461060782	1
0	15491	644.611673462677	0
0	15497	645.34000679601	0
0	15507	646.22200679601	0
0	15509	646.236673462677	0
0	15517	646.741794394115	3
0	15523	646.96500679601	1
0	15535	647.313461060782	0
0	15547	647.494006796009	3
0	15553	647.523340129343	1
0	15555	647.631673462676	0
0	15557	647.665461060782	0
0	15573	648.415673462676	0
0	15583	648.902127727449	0
0	15591	649.671461060782	0
0	15601	650.072673462676	0
0	15621	650.630461060782	0
0	15625	650.931006796009	0
0	15627	651.582127727449	0
0	15647	652.243673462676	0
0	15665	654.407794394116	0
0	15673	654.802461060783	0
0	15729	657.527794394116	0
0	15755	658.625127727449	0
0	15759	658.827461060782	0
0	15761	658.968794394115	0
0	15769	659.298127727448	0
0	15783	659.697127727448	0
0	15785	659.899673462676	3
0	15873	663.976340129343	0
0	15875	664.016673462676	0
0	15879	664.057006796009	0
0	15881	664.530673462676	0
0	15911	665.546461060781	0
0	15921	666.227794394114	0
0	15959	667.699127727447	0
0	15961	667.722127727447	0
0	15965	668.008794394113	1
0	15967	668.019127727446	0
0	16037	671.453673462677	2
0	16055	671.787673462677	0
0	16103	673.393006796011	1
0	16115	673.577673462677	1
0	16123	673.81800679601	0
0	16139	674.585127727446	1
0	16187	676.636461060779	0
0	16213	677.578127727446	0
0	16247	678.480794394112	1
0	16253	678.751794394112	0
0	16275	679.191794394112	0
0	16319	680.55200679601	1
0	16329	680.754461060778	2
0	16379	682.222461060778	1
0	16387	682.531461060778	0
0	16429	684.153340129344	1
0	16441	684.723340129344	0
0	16451	685.109006796011	3
0	16459	685.411673462678	0
0	16461	685.494127727445	0
0	16471	685.800461060778	0
0	16479	685.977006796011	0
0	16485	686.394794394111	0
0	16509	687.327461060778	0
0	16537	687.676673462678	0
0	16579	688.719006796011	1
0	16595	688.754794394112	1
0	16619	689.840673462678	0
0	16621	689.862006796011	0
0	16647	691.297794394112	0
0	16653	691.743127727446	1
0	16669	692.625127727446	0
0	16671	692.660794394113	0
0	16691	692.980006796011	1
0	16717	694.149794394113	0
0	16763	696.45046106078	0
0	16783	697.933794394114	1
0	16843	700.353794394114	0
0	16847	700.644127727447	2
0	16853	700.980794394114	0
0	16857	701.627127727447	0
0	16883	702.341794394113	1
0	16889	702.451794394113	1
0	16901	703.081006796011	3
0	16923	703.757794394113	1
0	16925	703.879794394113	0
0	16929	704.021127727446	0
0	16939	704.205794394112	1
0	16947	704.260794394112	0
0	16957	704.401673462677	1
0	16979	705.640794394112	1
0	17001	707.290127727445	0
0	17003	707.363673462677	1
0	17011	707.719461060778	0
0	17021	707.964127727445	0
0	17047	709.607461060778	0
0	17095	711.980794394112	1
0	17097	712.144461060779	0
0	17123	713.219794394112	0
0	17145	715.742461060779	0
0	17149	716.020673462678	2
0	17151	716.092794394112	0
0	17155	716.287673462678	0
0	17157	716.301461060779	0